title

2304   atoms
768   bonds

4   atom types
1   bond types


0.0 21.831472 xlo xhi
0.0 20.121716 ylo yhi
0.0 28.105434 zlo zhi

0.00000 0.00000 0.00000 xy xz yz 

Masses

1   6.94100 # Li
2  58.69340 # Ni
3  14.39910 # O core
4   1.59990 # O shell

Atoms

1    1    1     1.0000   3.070757   1.017867   2.084957
2    2    1     1.0000   3.070757   1.017867   16.137674
3    3    1     1.0000   3.070757   11.078725   2.084957
4    4    1     1.0000   3.070757   11.078725   16.137674
5    5    1     1.0000   13.986493   1.017867   2.084957
6    6    1     1.0000   13.986493   1.017867   16.137674
7    7    1     1.0000   13.986493   11.078725   2.084957
8    8    1     1.0000   13.986493   11.078725   16.137674
9    9    1     1.0000   2.830168   6.050400   2.181846
10   10   1     1.0000   2.830168   6.050400   16.234563
11   11   1     1.0000   2.830168   16.111258   2.181846
12   12   1     1.0000   2.830168   16.111258   16.234563
13   13   1     1.0000   13.745905   6.050400   2.181846
14   14   1     1.0000   13.745905   6.050400   16.234563
15   15   1     1.0000   13.745905   16.111258   2.181846
16   16   1     1.0000   13.745905   16.111258   16.234563
17   17   1     1.0000   5.719435   1.565318   2.077952
18   18   1     1.0000   5.719435   1.565318   16.130669
19   19   1     1.0000   5.719435   11.626176   2.077952
20   20   1     1.0000   5.719435   11.626176   16.130669
21   21   1     1.0000   16.635171   1.565318   2.077952
22   22   1     1.0000   16.635171   1.565318   16.130669
23   23   1     1.0000   16.635171   11.626176   2.077952
24   24   1     1.0000   16.635171   11.626176   16.130669
25   25   1     1.0000   5.493183   6.204999   2.474427
26   26   1     1.0000   5.493183   6.204999   16.527144
27   27   1     1.0000   5.493183   16.265856   2.474427
28   28   1     1.0000   5.493183   16.265856   16.527144
29   29   1     1.0000   16.408919   6.204999   2.474427
30   30   1     1.0000   16.408919   6.204999   16.527144
31   31   1     1.0000   16.408919   16.265856   2.474427
32   32   1     1.0000   16.408919   16.265856   16.527144
33   33   1     1.0000   8.229625   0.945412   2.321252
34   34   1     1.0000   8.229625   0.945412   16.373969
35   35   1     1.0000   8.229625   11.006269   2.321252
36   36   1     1.0000   8.229625   11.006269   16.373969
37   37   1     1.0000   19.145361   0.945412   2.321252
38   38   1     1.0000   19.145361   0.945412   16.373969
39   39   1     1.0000   19.145361   11.006269   2.321252
40   40   1     1.0000   19.145361   11.006269   16.373969
41   41   1     1.0000   7.985977   6.261568   2.429117
42   42   1     1.0000   7.985977   6.261568   16.481833
43   43   1     1.0000   7.985977   16.322426   2.429117
44   44   1     1.0000   7.985977   16.322426   16.481833
45   45   1     1.0000   18.901714   6.261568   2.429117
46   46   1     1.0000   18.901714   6.261568   16.481833
47   47   1     1.0000   18.901714   16.322426   2.429117
48   48   1     1.0000   18.901714   16.322426   16.481833
49   49   1     1.0000   0.035806   1.373419   2.426906
50   50   1     1.0000   0.035806   1.373419   16.479622
51   51   1     1.0000   0.035806   11.434277   2.426906
52   52   1     1.0000   0.035806   11.434277   16.479622
53   53   1     1.0000   10.951542   1.373419   2.426906
54   54   1     1.0000   10.951542   1.373419   16.479622
55   55   1     1.0000   10.951542   11.434277   2.426906
56   56   1     1.0000   10.951542   11.434277   16.479622
57   57   1     1.0000   10.824389   6.350348   2.297211
58   58   1     1.0000   10.824389   6.350348   16.349927
59   59   1     1.0000   10.824389   16.411206   2.297211
60   60   1     1.0000   10.824389   16.411206   16.349927
61   61   1     1.0000   21.740125   6.350348   2.297211
62   62   1     1.0000   21.740125   6.350348   16.349927
63   63   1     1.0000   21.740125   16.411206   2.297211
64   64   1     1.0000   21.740125   16.411206   16.349927
65   65   1     1.0000   1.238164   3.595015   2.195614
66   66   1     1.0000   1.238164   3.595015   16.248331
67   67   1     1.0000   1.238164   13.655873   2.195614
68   68   1     1.0000   1.238164   13.655873   16.248331
69   69   1     1.0000   12.153900   3.595015   2.195614
70   70   1     1.0000   12.153900   3.595015   16.248331
71   71   1     1.0000   12.153900   13.655873   2.195614
72   72   1     1.0000   12.153900   13.655873   16.248331
73   73   1     1.0000   1.521257   8.960831   2.418269
74   74   1     1.0000   1.521257   8.960831   16.470986
75   75   1     1.0000   1.521257   19.021688   2.418269
76   76   1     1.0000   1.521257   19.021688   16.470986
77   77   1     1.0000   12.436993   8.960831   2.418269
78   78   1     1.0000   12.436993   8.960831   16.470986
79   79   1     1.0000   12.436993   19.021688   2.418269
80   80   1     1.0000   12.436993   19.021688   16.470986
81   81   1     1.0000   4.114918   3.935924   2.225515
82   82   1     1.0000   4.114918   3.935924   16.278232
83   83   1     1.0000   4.114918   13.996782   2.225515
84   84   1     1.0000   4.114918   13.996782   16.278232
85   85   1     1.0000   15.030654   3.935924   2.225515
86   86   1     1.0000   15.030654   3.935924   16.278232
87   87   1     1.0000   15.030654   13.996782   2.225515
88   88   1     1.0000   15.030654   13.996782   16.278232
89   89   1     1.0000   4.178588   8.614589   2.416195
90   90   1     1.0000   4.178588   8.614589   16.468912
91   91   1     1.0000   4.178588   18.675447   2.416195
92   92   1     1.0000   4.178588   18.675447   16.468912
93   93   1     1.0000   15.094324   8.614589   2.416195
94   94   1     1.0000   15.094324   8.614589   16.468912
95   95   1     1.0000   15.094324   18.675447   2.416195
96   96   1     1.0000   15.094324   18.675447   16.468912
97   97   1     1.0000   6.662470   4.091228   2.099362
98   98   1     1.0000   6.662470   4.091228   16.152079
99   99   1     1.0000   6.662470   14.152086   2.099362
100  100  1     1.0000   6.662470   14.152086   16.152079
101  101  1     1.0000   17.578206   4.091228   2.099362
102  102  1     1.0000   17.578206   4.091228   16.152079
103  103  1     1.0000   17.578206   14.152086   2.099362
104  104  1     1.0000   17.578206   14.152086   16.152079
105  105  1     1.0000   7.047978   8.694546   2.123300
106  106  1     1.0000   7.047978   8.694546   16.176017
107  107  1     1.0000   7.047978   18.755404   2.123300
108  108  1     1.0000   7.047978   18.755404   16.176017
109  109  1     1.0000   17.963715   8.694546   2.123300
110  110  1     1.0000   17.963715   8.694546   16.176017
111  111  1     1.0000   17.963715   18.755404   2.123300
112  112  1     1.0000   17.963715   18.755404   16.176017
113  113  1     1.0000   9.363287   3.457192   2.393162
114  114  1     1.0000   9.363287   3.457192   16.445879
115  115  1     1.0000   9.363287   13.518050   2.393162
116  116  1     1.0000   9.363287   13.518050   16.445879
117  117  1     1.0000   20.279023   3.457192   2.393162
118  118  1     1.0000   20.279023   3.457192   16.445879
119  119  1     1.0000   20.279023   13.518050   2.393162
120  120  1     1.0000   20.279023   13.518050   16.445879
121  121  1     1.0000   9.771808   8.718356   2.437077
122  122  1     1.0000   9.771808   8.718356   16.489794
123  123  1     1.0000   9.771808   18.779214   2.437077
124  124  1     1.0000   9.771808   18.779214   16.489794
125  125  1     1.0000   20.687544   8.718356   2.437077
126  126  1     1.0000   20.687544   8.718356   16.489794
127  127  1     1.0000   20.687544   18.779214   2.437077
128  128  1     1.0000   20.687544   18.779214   16.489794
129  129  1     1.0000   1.454163   0.071198   11.978972
130  130  1     1.0000   1.454163   0.071198   26.031689
131  131  1     1.0000   1.454163   10.132056   11.978972
132  132  1     1.0000   1.454163   10.132056   26.031689
133  133  1     1.0000   12.369900   0.071198   11.978972
134  134  1     1.0000   12.369900   0.071198   26.031689
135  135  1     1.0000   12.369900   10.132056   11.978972
136  136  1     1.0000   12.369900   10.132056   26.031689
137  137  1     1.0000   1.377877   5.508676   11.754263
138  138  1     1.0000   1.377877   5.508676   25.806980
139  139  1     1.0000   1.377877   15.569534   11.754263
140  140  1     1.0000   1.377877   15.569534   25.806980
141  141  1     1.0000   12.293613   5.508676   11.754263
142  142  1     1.0000   12.293613   5.508676   25.806980
143  143  1     1.0000   12.293613   15.569534   11.754263
144  144  1     1.0000   12.293613   15.569534   25.806980
145  145  1     1.0000   4.026069   0.578039   11.788120
146  146  1     1.0000   4.026069   0.578039   25.840837
147  147  1     1.0000   4.026069   10.638897   11.788120
148  148  1     1.0000   4.026069   10.638897   25.840837
149  149  1     1.0000   14.941805   0.578039   11.788120
150  150  1     1.0000   14.941805   0.578039   25.840837
151  151  1     1.0000   14.941805   10.638897   11.788120
152  152  1     1.0000   14.941805   10.638897   25.840837
153  153  1     1.0000   3.993479   5.236973   11.676009
154  154  1     1.0000   3.993479   5.236973   25.728726
155  155  1     1.0000   3.993479   15.297830   11.676009
156  156  1     1.0000   3.993479   15.297830   25.728726
157  157  1     1.0000   14.909215   5.236973   11.676009
158  158  1     1.0000   14.909215   5.236973   25.728726
159  159  1     1.0000   14.909215   15.297830   11.676009
160  160  1     1.0000   14.909215   15.297830   25.728726
161  161  1     1.0000   6.779364   0.471547   11.784453
162  162  1     1.0000   6.779364   0.471547   25.837170
163  163  1     1.0000   6.779364   10.532405   11.784453
164  164  1     1.0000   6.779364   10.532405   25.837170
165  165  1     1.0000   17.695100   0.471547   11.784453
166  166  1     1.0000   17.695100   0.471547   25.837170
167  167  1     1.0000   17.695100   10.532405   11.784453
168  168  1     1.0000   17.695100   10.532405   25.837170
169  169  1     1.0000   6.878947   5.557139   11.772358
170  170  1     1.0000   6.878947   5.557139   25.825075
171  171  1     1.0000   6.878947   15.617997   11.772358
172  172  1     1.0000   6.878947   15.617997   25.825075
173  173  1     1.0000   17.794683   5.557139   11.772358
174  174  1     1.0000   17.794683   5.557139   25.825075
175  175  1     1.0000   17.794683   15.617997   11.772358
176  176  1     1.0000   17.794683   15.617997   25.825075
177  177  1     1.0000   9.503435   0.978108   11.812896
178  178  1     1.0000   9.503435   0.978108   25.865613
179  179  1     1.0000   9.503435   11.038966   11.812896
180  180  1     1.0000   9.503435   11.038966   25.865613
181  181  1     1.0000   20.419171   0.978108   11.812896
182  182  1     1.0000   20.419171   0.978108   25.865613
183  183  1     1.0000   20.419171   11.038966   11.812896
184  184  1     1.0000   20.419171   11.038966   25.865613
185  185  1     1.0000   9.353136   5.398342   11.760877
186  186  1     1.0000   9.353136   5.398342   25.813594
187  187  1     1.0000   9.353136   15.459200   11.760877
188  188  1     1.0000   9.353136   15.459200   25.813594
189  189  1     1.0000   20.268872   5.398342   11.760877
190  190  1     1.0000   20.268872   5.398342   25.813594
191  191  1     1.0000   20.268872   15.459200   11.760877
192  192  1     1.0000   20.268872   15.459200   25.813594
193  193  1     1.0000   10.894101   3.076447   11.741282
194  194  1     1.0000   10.894101   3.076447   25.793999
195  195  1     1.0000   10.894101   13.137305   11.741282
196  196  1     1.0000   10.894101   13.137305   25.793999
197  197  1     1.0000   21.809837   3.076447   11.741282
198  198  1     1.0000   21.809837   3.076447   25.793999
199  199  1     1.0000   21.809837   13.137305   11.741282
200  200  1     1.0000   21.809837   13.137305   25.793999
201  201  1     1.0000   10.846724   8.179033   11.693435
202  202  1     1.0000   10.846724   8.179033   25.746152
203  203  1     1.0000   10.846724   18.239891   11.693435
204  204  1     1.0000   10.846724   18.239891   25.746152
205  205  1     1.0000   21.762461   8.179033   11.693435
206  206  1     1.0000   21.762461   8.179033   25.746152
207  207  1     1.0000   21.762461   18.239891   11.693435
208  208  1     1.0000   21.762461   18.239891   25.746152
209  209  1     1.0000   2.546935   2.990662   11.821935
210  210  1     1.0000   2.546935   2.990662   25.874652
211  211  1     1.0000   2.546935   13.051520   11.821935
212  212  1     1.0000   2.546935   13.051520   25.874652
213  213  1     1.0000   13.462671   2.990662   11.821935
214  214  1     1.0000   13.462671   2.990662   25.874652
215  215  1     1.0000   13.462671   13.051520   11.821935
216  216  1     1.0000   13.462671   13.051520   25.874652
217  217  1     1.0000   2.673146   7.839349   11.599950
218  218  1     1.0000   2.673146   7.839349   25.652667
219  219  1     1.0000   2.673146   17.900207   11.599950
220  220  1     1.0000   2.673146   17.900207   25.652667
221  221  1     1.0000   13.588883   7.839349   11.599950
222  222  1     1.0000   13.588883   7.839349   25.652667
223  223  1     1.0000   13.588883   17.900207   11.599950
224  224  1     1.0000   13.588883   17.900207   25.652667
225  225  1     1.0000   5.433539   2.998137   11.833688
226  226  1     1.0000   5.433539   2.998137   25.886404
227  227  1     1.0000   5.433539   13.058995   11.833688
228  228  1     1.0000   5.433539   13.058995   25.886404
229  229  1     1.0000   16.349275   2.998137   11.833688
230  230  1     1.0000   16.349275   2.998137   25.886404
231  231  1     1.0000   16.349275   13.058995   11.833688
232  232  1     1.0000   16.349275   13.058995   25.886404
233  233  1     1.0000   5.500559   8.089588   11.857872
234  234  1     1.0000   5.500559   8.089588   25.910589
235  235  1     1.0000   5.500559   18.150446   11.857872
236  236  1     1.0000   5.500559   18.150446   25.910589
237  237  1     1.0000   16.416295   8.089588   11.857872
238  238  1     1.0000   16.416295   8.089588   25.910589
239  239  1     1.0000   16.416295   18.150446   11.857872
240  240  1     1.0000   16.416295   18.150446   25.910589
241  241  1     1.0000   8.073073   3.050043   11.621125
242  242  1     1.0000   8.073073   3.050043   25.673842
243  243  1     1.0000   8.073073   13.110901   11.621125
244  244  1     1.0000   8.073073   13.110901   25.673842
245  245  1     1.0000   18.988809   3.050043   11.621125
246  246  1     1.0000   18.988809   3.050043   25.673842
247  247  1     1.0000   18.988809   13.110901   11.621125
248  248  1     1.0000   18.988809   13.110901   25.673842
249  249  1     1.0000   8.439976   7.965469   11.670980
250  250  1     1.0000   8.439976   7.965469   25.723697
251  251  1     1.0000   8.439976   18.026327   11.670980
252  252  1     1.0000   8.439976   18.026327   25.723697
253  253  1     1.0000   19.355713   7.965469   11.670980
254  254  1     1.0000   19.355713   7.965469   25.723697
255  255  1     1.0000   19.355713   18.026327   11.670980
256  256  1     1.0000   19.355713   18.026327   25.723697
257  257  1     1.0000   10.817279   4.982203   7.157768
258  258  1     1.0000   10.817279   4.982203   21.210485
259  259  1     1.0000   10.817279   15.043061   7.157768
260  260  1     1.0000   10.817279   15.043061   21.210485
261  261  1     1.0000   21.733015   4.982203   7.157768
262  262  1     1.0000   21.733015   4.982203   21.210485
263  263  1     1.0000   21.733015   15.043061   7.157768
264  264  1     1.0000   21.733015   15.043061   21.210485
265  265  1     1.0000   0.077739   9.837253   7.317193
266  266  1     1.0000   0.077739   9.837253   21.369910
267  267  1     1.0000   0.077739   19.898111   7.317193
268  268  1     1.0000   0.077739   19.898111   21.369910
269  269  1     1.0000   10.993475   9.837253   7.317193
270  270  1     1.0000   10.993475   9.837253   21.369910
271  271  1     1.0000   10.993475   19.898111   7.317193
272  272  1     1.0000   10.993475   19.898111   21.369910
273  273  1     1.0000   2.314117   4.815634   6.881973
274  274  1     1.0000   2.314117   4.815634   20.934690
275  275  1     1.0000   2.314117   14.876492   6.881973
276  276  1     1.0000   2.314117   14.876492   20.934690
277  277  1     1.0000   13.229853   4.815634   6.881973
278  278  1     1.0000   13.229853   4.815634   20.934690
279  279  1     1.0000   13.229853   14.876492   6.881973
280  280  1     1.0000   13.229853   14.876492   20.934690
281  281  1     1.0000   2.856095   9.801725   6.987077
282  282  1     1.0000   2.856095   9.801725   21.039794
283  283  1     1.0000   2.856095   19.862583   6.987077
284  284  1     1.0000   2.856095   19.862583   21.039794
285  285  1     1.0000   13.771831   9.801725   6.987077
286  286  1     1.0000   13.771831   9.801725   21.039794
287  287  1     1.0000   13.771831   19.862583   6.987077
288  288  1     1.0000   13.771831   19.862583   21.039794
289  289  1     1.0000   5.258992   4.816002   6.895199
290  290  1     1.0000   5.258992   4.816002   20.947916
291  291  1     1.0000   5.258992   14.876860   6.895199
292  292  1     1.0000   5.258992   14.876860   20.947916
293  293  1     1.0000   16.174729   4.816002   6.895199
294  294  1     1.0000   16.174729   4.816002   20.947916
295  295  1     1.0000   16.174729   14.876860   6.895199
296  296  1     1.0000   16.174729   14.876860   20.947916
297  297  1     1.0000   5.485211   0.052437   7.184505
298  298  1     1.0000   5.485211   0.052437   21.237221
299  299  1     1.0000   5.485211   10.113295   7.184505
300  300  1     1.0000   5.485211   10.113295   21.237221
301  301  1     1.0000   16.400947   0.052437   7.184505
302  302  1     1.0000   16.400947   0.052437   21.237221
303  303  1     1.0000   16.400947   10.113295   7.184505
304  304  1     1.0000   16.400947   10.113295   21.237221
305  305  1     1.0000   8.216546   4.606142   6.885527
306  306  1     1.0000   8.216546   4.606142   20.938244
307  307  1     1.0000   8.216546   14.667000   6.885527
308  308  1     1.0000   8.216546   14.667000   20.938244
309  309  1     1.0000   19.132282   4.606142   6.885527
310  310  1     1.0000   19.132282   4.606142   20.938244
311  311  1     1.0000   19.132282   14.667000   6.885527
312  312  1     1.0000   19.132282   14.667000   20.938244
313  313  1     1.0000   8.019727   9.878572   6.861214
314  314  1     1.0000   8.019727   9.878572   20.913931
315  315  1     1.0000   8.019727   19.939430   6.861214
316  316  1     1.0000   8.019727   19.939430   20.913931
317  317  1     1.0000   18.935463   9.878572   6.861214
318  318  1     1.0000   18.935463   9.878572   20.913931
319  319  1     1.0000   18.935463   19.939430   6.861214
320  320  1     1.0000   18.935463   19.939430   20.913931
321  321  1     1.0000   1.246264   2.166447   6.814255
322  322  1     1.0000   1.246264   2.166447   20.866972
323  323  1     1.0000   1.246264   12.227305   6.814255
324  324  1     1.0000   1.246264   12.227305   20.866972
325  325  1     1.0000   12.162000   2.166447   6.814255
326  326  1     1.0000   12.162000   2.166447   20.866972
327  327  1     1.0000   12.162000   12.227305   6.814255
328  328  1     1.0000   12.162000   12.227305   20.866972
329  329  1     1.0000   1.406005   7.664416   7.281698
330  330  1     1.0000   1.406005   7.664416   21.334415
331  331  1     1.0000   1.406005   17.725273   7.281698
332  332  1     1.0000   1.406005   17.725273   21.334415
333  333  1     1.0000   12.321741   7.664416   7.281698
334  334  1     1.0000   12.321741   7.664416   21.334415
335  335  1     1.0000   12.321741   17.725273   7.281698
336  336  1     1.0000   12.321741   17.725273   21.334415
337  337  1     1.0000   4.046561   2.323075   7.146821
338  338  1     1.0000   4.046561   2.323075   21.199537
339  339  1     1.0000   4.046561   12.383933   7.146821
340  340  1     1.0000   4.046561   12.383933   21.199537
341  341  1     1.0000   14.962297   2.323075   7.146821
342  342  1     1.0000   14.962297   2.323075   21.199537
343  343  1     1.0000   14.962297   12.383933   7.146821
344  344  1     1.0000   14.962297   12.383933   21.199537
345  345  1     1.0000   4.277284   7.523879   7.217223
346  346  1     1.0000   4.277284   7.523879   21.269940
347  347  1     1.0000   4.277284   17.584736   7.217223
348  348  1     1.0000   4.277284   17.584736   21.269940
349  349  1     1.0000   15.193020   7.523879   7.217223
350  350  1     1.0000   15.193020   7.523879   21.269940
351  351  1     1.0000   15.193020   17.584736   7.217223
352  352  1     1.0000   15.193020   17.584736   21.269940
353  353  1     1.0000   6.814746   2.289436   6.600841
354  354  1     1.0000   6.814746   2.289436   20.653558
355  355  1     1.0000   6.814746   12.350294   6.600841
356  356  1     1.0000   6.814746   12.350294   20.653558
357  357  1     1.0000   17.730483   2.289436   6.600841
358  358  1     1.0000   17.730483   2.289436   20.653558
359  359  1     1.0000   17.730483   12.350294   6.600841
360  360  1     1.0000   17.730483   12.350294   20.653558
361  361  1     1.0000   6.862131   7.648813   6.886379
362  362  1     1.0000   6.862131   7.648813   20.939096
363  363  1     1.0000   6.862131   17.709671   6.886379
364  364  1     1.0000   6.862131   17.709671   20.939096
365  365  1     1.0000   17.777867   7.648813   6.886379
366  366  1     1.0000   17.777867   7.648813   20.939096
367  367  1     1.0000   17.777867   17.709671   6.886379
368  368  1     1.0000   17.777867   17.709671   20.939096
369  369  1     1.0000   9.775357   2.252872   7.269516
370  370  1     1.0000   9.775357   2.252872   21.322233
371  371  1     1.0000   9.775357   12.313730   7.269516
372  372  1     1.0000   9.775357   12.313730   21.322233
373  373  1     1.0000   20.691093   2.252872   7.269516
374  374  1     1.0000   20.691093   2.252872   21.322233
375  375  1     1.0000   20.691093   12.313730   7.269516
376  376  1     1.0000   20.691093   12.313730   21.322233
377  377  1     1.0000   9.656033   7.216489   7.113718
378  378  1     1.0000   9.656033   7.216489   21.166434
379  379  1     1.0000   9.656033   17.277347   7.113718
380  380  1     1.0000   9.656033   17.277347   21.166434
381  381  1     1.0000   20.571769   7.216489   7.113718
382  382  1     1.0000   20.571769   7.216489   21.166434
383  383  1     1.0000   20.571769   17.277347   7.113718
384  384  1     1.0000   20.571769   17.277347   21.166434
385  385  2     3.0000   10.590961   4.529272   0.285042
386  386  2     3.0000   10.590961   4.529272   14.337759
387  387  2     3.0000   10.590961   14.590129   0.285042
388  388  2     3.0000   10.590961   14.590129   14.337759
389  389  2     3.0000   21.506698   4.529272   0.285042
390  390  2     3.0000   21.506698   4.529272   14.337759
391  391  2     3.0000   21.506698   14.590129   0.285042
392  392  2     3.0000   21.506698   14.590129   14.337759
393  393  2     3.0000   0.112591   9.498099   14.052606
394  394  2     3.0000   0.112591   9.498099   28.105323
395  395  2     3.0000   0.112591   19.558957   14.052606
396  396  2     3.0000   0.112591   19.558957   28.105323
397  397  2     3.0000   11.028327   9.498099   14.052606
398  398  2     3.0000   11.028327   9.498099   28.105323
399  399  2     3.0000   11.028327   19.558957   14.052606
400  400  2     3.0000   11.028327   19.558957   28.105323
401  401  2     3.0000   2.603281   4.631853   14.026166
402  402  2     3.0000   2.603281   4.631853   28.078882
403  403  2     3.0000   2.603281   14.692711   14.026166
404  404  2     3.0000   2.603281   14.692711   28.078882
405  405  2     3.0000   13.519017   4.631853   14.026166
406  406  2     3.0000   13.519017   4.631853   28.078882
407  407  2     3.0000   13.519017   14.692711   14.026166
408  408  2     3.0000   13.519017   14.692711   28.078882
409  409  2     3.0000   2.878373   9.550084   0.046287
410  410  2     3.0000   2.878373   9.550084   14.099004
411  411  2     3.0000   2.878373   19.610942   0.046287
412  412  2     3.0000   2.878373   19.610942   14.099004
413  413  2     3.0000   13.794110   9.550084   0.046287
414  414  2     3.0000   13.794110   9.550084   14.099004
415  415  2     3.0000   13.794110   19.610942   0.046287
416  416  2     3.0000   13.794110   19.610942   14.099004
417  417  2     3.0000   5.417439   4.711507   13.879683
418  418  2     3.0000   5.417439   4.711507   27.932400
419  419  2     3.0000   5.417439   14.772365   13.879683
420  420  2     3.0000   5.417439   14.772365   27.932400
421  421  2     3.0000   16.333175   4.711507   13.879683
422  422  2     3.0000   16.333175   4.711507   27.932400
423  423  2     3.0000   16.333175   14.772365   13.879683
424  424  2     3.0000   16.333175   14.772365   27.932400
425  425  2     3.0000   5.552408   9.799436   13.949736
426  426  2     3.0000   5.552408   9.799436   28.002453
427  427  2     3.0000   5.552408   19.860294   13.949736
428  428  2     3.0000   5.552408   19.860294   28.002453
429  429  2     3.0000   16.468144   9.799436   13.949736
430  430  2     3.0000   16.468144   9.799436   28.002453
431  431  2     3.0000   16.468144   19.860294   13.949736
432  432  2     3.0000   16.468144   19.860294   28.002453
433  433  2     3.0000   8.038090   4.689482   14.034175
434  434  2     3.0000   8.038090   4.689482   28.086892
435  435  2     3.0000   8.038090   14.750340   14.034175
436  436  2     3.0000   8.038090   14.750340   28.086892
437  437  2     3.0000   18.953826   4.689482   14.034175
438  438  2     3.0000   18.953826   4.689482   28.086892
439  439  2     3.0000   18.953826   14.750340   14.034175
440  440  2     3.0000   18.953826   14.750340   28.086892
441  441  2     3.0000   8.314059   9.706232   0.062699
442  442  2     3.0000   8.314059   9.706232   14.115416
443  443  2     3.0000   8.314059   19.767090   0.062699
444  444  2     3.0000   8.314059   19.767090   14.115416
445  445  2     3.0000   19.229796   9.706232   0.062699
446  446  2     3.0000   19.229796   9.706232   14.115416
447  447  2     3.0000   19.229796   19.767090   0.062699
448  448  2     3.0000   19.229796   19.767090   14.115416
449  449  2     3.0000   1.247651   2.091914   0.118165
450  450  2     3.0000   1.247651   2.091914   14.170882
451  451  2     3.0000   1.247651   12.152772   0.118165
452  452  2     3.0000   1.247651   12.152772   14.170882
453  453  2     3.0000   12.163387   2.091914   0.118165
454  454  2     3.0000   12.163387   2.091914   14.170882
455  455  2     3.0000   12.163387   12.152772   0.118165
456  456  2     3.0000   12.163387   12.152772   14.170882
457  457  2     3.0000   1.478087   7.124470   14.041311
458  458  2     3.0000   1.478087   7.124470   28.094028
459  459  2     3.0000   1.478087   17.185328   14.041311
460  460  2     3.0000   1.478087   17.185328   28.094028
461  461  2     3.0000   12.393823   7.124470   14.041311
462  462  2     3.0000   12.393823   7.124470   28.094028
463  463  2     3.0000   12.393823   17.185328   14.041311
464  464  2     3.0000   12.393823   17.185328   28.094028
465  465  2     3.0000   4.107319   2.090979   13.950952
466  466  2     3.0000   4.107319   2.090979   28.003669
467  467  2     3.0000   4.107319   12.151836   13.950952
468  468  2     3.0000   4.107319   12.151836   28.003669
469  469  2     3.0000   15.023055   2.090979   13.950952
470  470  2     3.0000   15.023055   2.090979   28.003669
471  471  2     3.0000   15.023055   12.151836   13.950952
472  472  2     3.0000   15.023055   12.151836   28.003669
473  473  2     3.0000   4.238031   7.136716   13.946143
474  474  2     3.0000   4.238031   7.136716   27.998860
475  475  2     3.0000   4.238031   17.197574   13.946143
476  476  2     3.0000   4.238031   17.197574   27.998860
477  477  2     3.0000   15.153768   7.136716   13.946143
478  478  2     3.0000   15.153768   7.136716   27.998860
479  479  2     3.0000   15.153768   17.197574   13.946143
480  480  2     3.0000   15.153768   17.197574   27.998860
481  481  2     3.0000   6.920612   2.231099   13.915797
482  482  2     3.0000   6.920612   2.231099   27.968514
483  483  2     3.0000   6.920612   12.291957   13.915797
484  484  2     3.0000   6.920612   12.291957   27.968514
485  485  2     3.0000   17.836348   2.231099   13.915797
486  486  2     3.0000   17.836348   2.231099   27.968514
487  487  2     3.0000   17.836348   12.291957   13.915797
488  488  2     3.0000   17.836348   12.291957   27.968514
489  489  2     3.0000   6.857335   7.189169   13.929217
490  490  2     3.0000   6.857335   7.189169   27.981934
491  491  2     3.0000   6.857335   17.250027   13.929217
492  492  2     3.0000   6.857335   17.250027   27.981934
493  493  2     3.0000   17.773071   7.189169   13.929217
494  494  2     3.0000   17.773071   7.189169   27.981934
495  495  2     3.0000   17.773071   17.250027   13.929217
496  496  2     3.0000   17.773071   17.250027   27.981934
497  497  2     3.0000   9.563151   2.183743   14.017126
498  498  2     3.0000   9.563151   2.183743   28.069843
499  499  2     3.0000   9.563151   12.244601   14.017126
500  500  2     3.0000   9.563151   12.244601   28.069843
501  501  2     3.0000   20.478887   2.183743   14.017126
502  502  2     3.0000   20.478887   2.183743   28.069843
503  503  2     3.0000   20.478887   12.244601   14.017126
504  504  2     3.0000   20.478887   12.244601   28.069843
505  505  2     3.0000   9.645969   7.152801   0.052582
506  506  2     3.0000   9.645969   7.152801   14.105299
507  507  2     3.0000   9.645969   17.213659   0.052582
508  508  2     3.0000   9.645969   17.213659   14.105299
509  509  2     3.0000   20.561705   7.152801   0.052582
510  510  2     3.0000   20.561705   7.152801   14.105299
511  511  2     3.0000   20.561705   17.213659   0.052582
512  512  2     3.0000   20.561705   17.213659   14.105299
513  513  2     3.0000   1.369170   0.411988   4.717548
514  514  2     3.0000   1.369170   0.411988   18.770265
515  515  2     3.0000   1.369170   10.472845   4.717548