title

288   atoms
96   bonds

4   atom types
1   bond types


0.0 10.915736 xlo xhi
0.0 10.060858 ylo yhi
0.0 14.052717 zlo zhi

0.00000 0.00000 0.00000 xy xz yz 

Masses

1   6.94100 # Li
2  58.69340 # Ni
3  14.39910 # O core
4   1.59990 # O shell

Atoms

1    1    1     1.0000   2.872862   1.468636   2.140768
2    2    1     1.0000   2.885470   6.043370   2.338419
3    3    1     1.0000   5.744683   1.415455   2.442110
4    4    1     1.0000   5.663047   6.500176   2.265228
5    5    1     1.0000   8.268392   1.181159   2.408802
6    6    1     1.0000   8.083381   6.362123   2.535760
7    7    1     1.0000   10.789246   1.311131   2.251297
8    8    1     1.0000   10.757243   6.481107   2.299445
9    9    1     1.0000   1.076978   3.735942   2.269132
10   10   1     1.0000   1.469088   9.158635   2.146503
11   11   1     1.0000   4.129433   3.748984   2.337572
12   12   1     1.0000   4.264624   9.128789   2.286354
13   13   1     1.0000   7.083902   3.932266   2.455012
14   14   1     1.0000   6.763510   9.016015   2.328571
15   15   1     1.0000   9.639680   3.685829   2.019939
16   16   1     1.0000   9.776749   8.901811   2.423191
17   17   1     1.0000   1.573699   0.999990   11.400552
18   18   1     1.0000   1.235390   5.768099   11.612492
19   19   1     1.0000   3.942871   0.273031   11.533447
20   20   1     1.0000   4.228789   5.659638   11.996801
21   21   1     1.0000   6.901796   0.697497   11.642703
22   22   1     1.0000   6.765536   5.572294   11.589133
23   23   1     1.0000   9.590890   0.561972   11.799820
24   24   1     1.0000   9.594706   5.411946   11.691972
25   25   1     1.0000   10.868242   3.174674   11.509255
26   26   1     1.0000   0.113307   8.072545   11.914274
27   27   1     1.0000   3.021698   3.386238   11.749515
28   28   1     1.0000   2.863779   7.941649   11.717311
29   29   1     1.0000   5.342503   2.807029   11.333278
30   30   1     1.0000   5.706434   8.070912   12.090120
31   31   1     1.0000   8.200806   2.974515   11.570212
32   32   1     1.0000   8.229797   8.248060   11.517462
33   33   1     1.0000   0.143692   4.827331   6.932884
34   34   1     1.0000   10.896832   10.018778   6.877039
35   35   1     1.0000   2.754106   4.639191   6.831235
36   36   1     1.0000   2.675147   9.550812   7.112156
37   37   1     1.0000   5.406086   4.902308   7.052192
38   38   1     1.0000   5.209095   9.412730   7.287704
39   39   1     1.0000   8.183756   4.679323   6.775527
40   40   1     1.0000   7.781391   9.744994   7.184114
41   41   1     1.0000   1.527883   1.935499   6.987428
42   42   1     1.0000   1.321440   6.962793   6.934595
43   43   1     1.0000   3.816122   2.090718   7.033864
44   44   1     1.0000   4.019864   7.171006   6.847208
45   45   1     1.0000   6.760039   2.053595   7.056167
46   46   1     1.0000   6.786378   7.286744   7.399808
47   47   1     1.0000   9.631801   2.326456   7.168147
48   48   1     1.0000   9.670393   7.496735   6.734347
49   49   2     3.0000   0.129327   4.830036   13.922662
50   50   2     3.0000   0.136701   9.831069   13.849634
51   51   2     3.0000   2.857904   4.662824   0.090040
52   52   2     3.0000   2.832211   9.615204   14.024994
53   53   2     3.0000   5.636724   4.627937   0.018010
54   54   2     3.0000   5.505877   9.720524   0.008958
55   55   2     3.0000   8.219289   4.828818   14.021276
56   56   2     3.0000   8.098087   9.863530   13.972901
57   57   2     3.0000   1.390640   2.314306   14.020251
58   58   2     3.0000   1.566602   7.026336   0.256200
59   59   2     3.0000   4.259000   2.132506   0.008515
60   60   2     3.0000   4.256777   7.141178   0.125972
61   61   2     3.0000   6.955825   2.093315   13.990954
62   62   2     3.0000   6.799265   7.121766   0.173882
63   63   2     3.0000   9.514566   2.219058   13.742215
64   64   2     3.0000   9.442112   7.171363   0.082318
65   65   2     3.0000   1.448522   0.632127   4.601269
66   66   2     3.0000   1.281385   5.522696   4.521966
67   67   2     3.0000   4.115527   0.433705   4.640983
68   68   2     3.0000   4.101434   5.521130   4.563499
69   69   2     3.0000   6.739441   0.569797   4.936005
70   70   2     3.0000   6.864366   5.593414   4.543205
71   71   2     3.0000   9.500827   0.613611   4.833630
72   72   2     3.0000   9.570923   5.465922   4.601546
73   73   2     3.0000   2.736122   2.999237   4.589977
74   74   2     3.0000   2.794343   8.051773   4.696673
75   75   2     3.0000   5.424515   2.860296   4.735329
76   76   2     3.0000   5.482779   8.120941   4.774418
77   77   2     3.0000   8.282430   3.088989   4.617343
78   78   2     3.0000   8.288202   8.102574   4.835535
79   79   2     3.0000   10.858645   2.934127   4.782848
80   80   2     3.0000   10.911764   8.254711   4.682861
81   81   2     3.0000   10.915368   1.455622   9.209817
82   82   2     3.0000   10.874231   6.321360   9.572816
83   83   2     3.0000   2.550985   1.317714   9.151614
84   84   2     3.0000   2.552821   6.342213   9.302225
85   85   2     3.0000   5.328739   1.336329   9.311456
86   86   2     3.0000   5.234603   6.186767   9.620701
87   87   2     3.0000   8.187129   1.416595   9.176897
88   88   2     3.0000   8.096303   6.540083   9.479800
89   89   2     3.0000   1.493493   3.955173   9.377917
90   90   2     3.0000   1.297397   8.996328   9.362762
91   91   2     3.0000   4.048016   3.862546   9.279069
92   92   2     3.0000   3.944212   8.690976   9.513315
93   93   2     3.0000   6.707534   3.842528   9.397299
94   94   2     3.0000   6.578602   8.743811   9.612444
95   95   2     3.0000   9.632652   3.820383   9.300548
96   96   2     3.0000   9.428162   8.894541   9.524042
97   97   3    -2.0000   2.770885   4.546470   3.698021
98   97   4     0.0000   2.770885   4.546470   3.698021
99   98   3    -2.0000   2.842190   9.791238   3.492468
100  98   4     0.0000   2.842190   9.791238   3.492468
101  99   3    -2.0000   5.406203   4.473661   3.740024
102  99   4     0.0000   5.406203   4.473661   3.740024
103  100  3    -2.0000   5.388718   9.650739   3.742949
104  100  4     0.0000   5.388718   9.650739   3.742949
105  101  3    -2.0000   8.380414   4.612552   3.413755
106  101  4     0.0000   8.380414   4.612552   3.413755
107  102  3    -2.0000   8.299254   9.769001   3.761019
108  102  4     0.0000   8.299254   9.769001   3.761019
109  103  3    -2.0000   10.794752   4.694830   3.490924
110  103  4     0.0000   10.794752   4.694830   3.490924
111  104  3    -2.0000   0.277577   9.958066   3.426825
112  104  4     0.0000   0.277577   9.958066   3.426825
113  105  3    -2.0000   1.260195   2.398105   3.470478
114  105  4     0.0000   1.260195   2.398105   3.470478
115  106  3    -2.0000   1.673967   7.080673   3.492934
116  106  4     0.0000   1.673967   7.080673   3.492934
117  107  3    -2.0000   4.256195   2.132655   3.474915
118  107  4     0.0000   4.256195   2.132655   3.474915
119  108  3    -2.0000   4.085196   7.258938   3.740662
120  108  4     0.0000   4.085196   7.258938   3.740662
121  109  3    -2.0000   6.612238   2.110765   3.874254
122  109  4     0.0000   6.612238   2.110765   3.874254
123  110  3    -2.0000   6.936837   7.405684   3.653250
124  110  4     0.0000   6.936837   7.405684   3.653250
125  111  3    -2.0000   9.483091   2.084161   3.684520
126  111  4     0.0000   9.483091   2.084161   3.684520
127  112  3    -2.0000   9.749374   7.445251   3.566547
128  112  4     0.0000   9.749374   7.445251   3.566547
129  113  3    -2.0000   0.153916   4.656557   10.546110
130  113  4     0.0000   0.153916   4.656557   10.546110
131  114  3    -2.0000   10.894941   9.860585   10.258619
132  114  4     0.0000   10.894941   9.860585   10.258619
133  115  3    -2.0000   2.687913   4.808498   10.314313
134  115  4     0.0000   2.687913   4.808498   10.314313
135  116  3    -2.0000   2.523148   9.943099   10.244447
136  116  4     0.0000   2.523148   9.943099   10.244447
137  117  3    -2.0000   5.417140   4.745707   10.580086
138  117  4     0.0000   5.417140   4.745707   10.580086
139  118  3    -2.0000   5.272953   9.714469   10.491076
140  118  4     0.0000   5.272953   9.714469   10.491076
141  119  3    -2.0000   8.099362   4.665916   10.510708
142  119  4     0.0000   8.099362   4.665916   10.510708
143  120  3    -2.0000   8.067976   9.759711   10.362199
144  120  4     0.0000   8.067976   9.759711   10.362199
145  121  3    -2.0000   1.412396   2.249212   10.166809
146  121  4     0.0000   1.412396   2.249212   10.166809
147  122  3    -2.0000   1.399881   7.197847   10.417601
148  122  4     0.0000   1.399881   7.197847   10.417601
149  123  3    -2.0000   3.934448   2.024735   10.428839
150  123  4     0.0000   3.934448   2.024735   10.428839
151  124  3    -2.0000   3.834031   6.982427   10.412018
152  124  4     0.0000   3.834031   6.982427   10.412018
153  125  3    -2.0000   6.768018   2.125656   10.280618
154  125  4     0.0000   6.768018   2.125656   10.280618
155  126  3    -2.0000   6.720329   7.137443   10.597754
156  126  4     0.0000   6.720329   7.137443   10.597754
157  127  3    -2.0000   9.459639   2.234703   10.328738
158  127  4     0.0000   9.459639   2.234703   10.328738
159  128  3    -2.0000   9.402723   7.019222   10.536016
160  128  4     0.0000   9.402723   7.019222   10.536016
161  129  3    -2.0000   1.361723   0.654982   8.113967
162  129  4     0.0000   1.361723   0.654982   8.113967
163  130  3    -2.0000   1.286569   5.711641   8.394899
164  130  4     0.0000   1.286569   5.711641   8.394899
165  131  3    -2.0000   4.009138   0.631628   8.350190
166  131  4     0.0000   4.009138   0.631628   8.350190
167  132  3    -2.0000   3.956752   5.463731   8.374021
168  132  4     0.0000   3.956752   5.463731   8.374021
169  133  3    -2.0000   6.736339   0.664177   8.240799
170  133  4     0.0000   6.736339   0.664177   8.240799
171  134  3    -2.0000   6.691156   5.532891   8.614422
172  134  4     0.0000   6.691156   5.532891   8.614422
173  135  3    -2.0000   9.368297   0.801433   8.083023
174  135  4     0.0000   9.368297   0.801433   8.083023
175  136  3    -2.0000   9.438135   5.834474   8.397266
176  136  4     0.0000   9.438135   5.834474   8.397266
177  137  3    -2.0000   0.279072   3.050131   8.291989
178  137  4     0.0000   0.279072   3.050131   8.291989
179  138  3    -2.0000   10.903242   8.093868   8.637330
180  138  4     0.0000   10.903242   8.093868   8.637330
181  139  3    -2.0000   2.795730   3.013033   8.200375
182  139  4     0.0000   2.795730   3.013033   8.200375
183  140  3    -2.0000   2.533773   7.984881   8.375970
184  140  4     0.0000   2.533773   7.984881   8.375970
185  141  3    -2.0000   5.372778   3.161718   8.355675
186  141  4     0.0000   5.372778   3.161718   8.355675
187  142  3    -2.0000   5.429675   7.873712   8.347095
188  142  4     0.0000   5.429675   7.873712   8.347095
189  143  3    -2.0000   8.078748   2.979238   8.199202
190  143  4     0.0000   8.078748   2.979238   8.199202
191  144  3    -2.0000   7.883284   8.124120   8.469953
192  144  4     0.0000   7.883284   8.124120   8.469953
193  145  3    -2.0000   1.634919   0.512397   0.940851
194  145  4     0.0000   1.634919   0.512397   0.940851
195  146  3    -2.0000   1.462205   5.175534   1.015581
196  146  4     0.0000   1.462205   5.175534   1.015581
197  147  3    -2.0000   4.274886   0.411784   0.995426
198  147  4     0.0000   4.274886   0.411784   0.995426
199  148  3    -2.0000   4.057799   5.438588   1.078496
200  148  4     0.0000   4.057799   5.438588   1.078496
201  149  3    -2.0000   6.841542   0.686668   1.118901
202  149  4     0.0000   6.841542   0.686668   1.118901
203  150  3    -2.0000   6.821729   5.673972   1.124695
204  150  4     0.0000   6.821729   5.673972   1.124695
205  151  3    -2.0000   9.477195   0.711214   0.890493
206  151  4     0.0000   9.477195   0.711214   0.890493
207  152  3    -2.0000   9.572992   5.675070   1.032788
208  152  4     0.0000   9.572992   5.675070   1.032788
209  153  3    -2.0000   0.046887   2.923317   0.880206
210  153  4     0.0000   0.046887   2.923317   0.880206
211  154  3    -2.0000   0.045614   7.734150   1.065553
212  154  4     0.0000   0.045614   7.734150   1.065553
213  155  3    -2.0000   2.610962   3.082469   0.957161
214  155  4     0.0000   2.610962   3.082469   0.957161
215  156  3    -2.0000   2.920407   8.078777   1.056456
216  156  4     0.0000   2.920407   8.078777   1.056456
217  157  3    -2.0000   5.557842   3.065196   1.079437
218  157  4     0.0000   5.557842   3.065196   1.079437
219  158  3    -2.0000   5.603006   7.956825   1.241150
220  158  4     0.0000   5.603006   7.956825   1.241150
221  159  3    -2.0000   8.331189   2.970922   0.798072
222  159  4     0.0000   8.331189   2.970922   0.798072
223  160  3    -2.0000   8.032945   7.929106   1.058772
224  160  4     0.0000   8.032945   7.929106   1.058772
225  161  3    -2.0000   10.806680   1.418591   12.710038
226  161  4     0.0000   10.806680   1.418591   12.710038
227  162  3    -2.0000   10.746492   6.455228   13.106300
228  162  4     0.0000   10.746492   6.455228   13.106300
229  163  3    -2.0000   2.585845   1.664463   12.990239
230  163  4     0.0000   2.585845   1.664463   12.990239
231  164  3    -2.0000   2.754641   6.187266   13.148028
232  164  4     0.0000   2.754641   6.187266   13.148028
233  165  3    -2.0000   5.706115   1.242195   13.087541
234  165  4     0.0000   5.706115   1.242195   13.087541
235  166  3    -2.0000   5.603577   6.176792   13.234664
236  166  4     0.0000   5.603577   6.176792   13.234664
237  167  3    -2.0000   8.179802   1.468450   12.784020
238  167  4     0.0000   8.179802   1.468450   12.784020
239  168  3    -2.0000   8.230190   6.497880   13.243660
240  168  4     0.0000   8.230190   6.497880   13.243660
241  169  3    -2.0000   1.558364   3.806418   12.929466
242  169  4     0.0000   1.558364   3.806418   12.929466
243  170  3    -2.0000   1.661940   8.944828   12.796551
244  170  4     0.0000   1.661940   8.944828   12.796551
245  171  3    -2.0000   4.183466   3.965132   13.195903
246  171  4     0.0000   4.183466   3.965132   13.195903
247  172  3    -2.0000   4.245474   8.761498   13.083834
248  172  4     0.0000   4.245474   8.761498   13.083834
249  173  3    -2.0000   6.842068   4.056099   13.040223
250  173  4     0.0000   6.842068   4.056099   13.040223
251  174  3    -2.0000   6.762748   8.710056   13.093799
252  174  4     0.0000   6.762748   8.710056   13.093799
253  175  3    -2.0000   9.568715   3.701487   12.857447
254  175  4     0.0000   9.568715   3.701487   12.857447
255  176  3    -2.0000   9.376003   8.770168   13.022764
256  176  4     0.0000   9.376003   8.770168   13.022764
257  177  3    -2.0000   2.776200   1.258629   5.681575
258  177  4     0.0000   2.776200   1.258629   5.681575
259  178  3    -2.0000   2.697234   6.298521   5.756975
260  178  4     0.0000   2.697234   6.298521   5.756975
261  179  3    -2.0000   5.147444   1.458330   5.734354
262  179  4     0.0000   5.147444   1.458330   5.734354
263  180  3    -2.0000   5.506284   6.553971   5.656723
264  180  4     0.0000   5.506284   6.553971   5.656723
265  181  3    -2.0000   8.123846   1.251044   5.902733
266  181  4     0.0000   8.123846   1.251044   5.902733
267  182  3    -2.0000   8.343789   6.257566   5.704149
268  182  4     0.0000   8.343789   6.257566   5.704149
269  183  3    -2.0000   10.877353   1.288018   5.754296
270  183  4     0.0000   10.877353   1.288018   5.754296
271  184  3    -2.0000   10.908826   6.360617   5.630335
272  184  4     0.0000   10.908826   6.360617   5.630335
273  185  3    -2.0000   1.311434   4.027068   5.619262
274  185  4     0.0000   1.311434   4.027068   5.619262
275  186  3    -2.0000   1.457558   8.940163   5.622328
276  186  4     0.0000   1.457558   8.940163   5.622328
277  187  3    -2.0000   3.914853   3.924396   5.872027
278  187  4     0.0000   3.914853   3.924396   5.872027
279  188  3    -2.0000   4.111004   8.810972   5.906444
280  188  4     0.0000   4.111004   8.810972   5.906444
281  189  3    -2.0000   6.942084   3.572397   5.771269
282  189  4     0.0000   6.942084   3.572397   5.771269
283  190  3    -2.0000   6.725201   8.777562   5.861090
284  190  4     0.0000   6.725201   8.777562   5.861090
285  191  3    -2.0000   9.675565   3.830757   5.799764
286  191  4     0.0000   9.675565   3.830757   5.799764
287  192  3    -2.0000   9.462532   8.919577   5.870222
288  192  4     0.0000   9.462532   8.919577   5.870222

Bonds

1    1    97   98  
2    1    99   100 
3    1    101  102 
4    1    103  104 
5    1    105  106 
6    1    107  108 
7    1    109  110 
8    1    111  112 
9    1    113  114 
10   1    115  116 
11   1    117  118 
12   1    119  120 
13   1    121  122 
14   1    123  124 
15   1    125  126 
16   1    127  128 
17   1    129  130 
18   1    131  132 
19   1    133  134 
20   1    135  136 
21   1    137  138 
22   1    139  140 
23   1    141  142 
24   1    143  144 
25   1    145  146 
26   1    147  148 
27   1    149  150 
28   1    151  152 
29   1    153  154 
30   1    155  156 
31   1    157  158 
32   1    159  160 
33   1    161  162 
34   1    163  164 
35   1    165  166 
36   1    167  168 
37   1    169  170 
38   1    171  172 
39   1    173  174 
40   1    175  176 
41   1    177  178 
42   1    179  180 
43   1    181  182 
44   1    183  184 
45   1    185  186 
46   1    187  188 
47   1    189  190 
48   1    191  192 
49   1    193  194 
50   1    195  196 
51   1    197  198 
52   1    199  200 
53   1    201  202 
54   1    203  204 
55   1    205  206 
56   1    207  208 
57   1    209  210 
58   1    211  212 
59   1    213  214 
60   1    215  216 
61   1    217  218 
62   1    219  220 
63   1    221  222 
64   1    223  224 
65   1    225  226 
66   1    227  228 
67   1    229  230 
68   1    231  232 
69   1    233  234 
70   1    235  236 
71   1    237  238 
72   1    239  240 
73   1    241  242 
74   1    243  244 
75   1    245  246 
76   1    247  248 
77   1    249  250 
78   1    251  252 
79   1    253  254 
80   1    255  256 
81   1    257  258 
82   1    259  260 
83   1    261  262 
84   1    263  264 
85   1    265  266 
86   1    267  268 
87   1    269  270 
88   1    271  272 
89   1    273  274 
90   1    275  276 
91   1    277  278 
92   1    279  280 
93   1    281  282 
94   1    283  284 
95   1    285  286 
96   1    287  288 

