title

288   atoms
96   bonds

4   atom types
1   bond types

0.0 12.176542 xlo xhi
0.0 9.588532 ylo yhi
0.0 13.997015 zlo zhi

-4.66146 0.58146 0.44776 xy xz yz 

Masses

1   6.94100 # Li
2  58.69340 # Ni
3  14.39910 # O core
4   1.59990 # O shell

Atoms

1    1    1     1.0000   0.136583   1.354522   2.226771
2    2    1     1.0000  -0.782497   4.081714   2.253072
3    3    1     1.0000  -2.178808   6.640059   2.360975
4    4    1     1.0000  -3.404092   8.711572   2.259062
5    5    1     1.0000   2.889613   1.485113   2.114599
6    6    1     1.0000   1.728232   3.712022   2.295063
7    7    1     1.0000   0.810318   6.404552   2.211234
8    8    1     1.0000  -0.265033   9.070727   2.339797
9    9    1     1.0000   5.671050   1.615404   2.463419
10   10   1     1.0000   4.540974   4.096400   2.588496
11   11   1     1.0000   3.480958   6.445481   2.339153
12   12   1     1.0000   2.249452   8.765541   2.358959
13   13   1     1.0000   8.313655   1.421733   2.168418
14   14   1     1.0000   7.516592   3.844747   2.130738
15   15   1     1.0000   6.209889   6.662052   2.538289
16   16   1     1.0000   5.182642   8.899200   2.226533
17   17   1     1.0000  -4.221938   9.667912   6.974797
18   18   1     1.0000  -0.716864   2.832271   6.883438
19   19   1     1.0000  -1.599930   5.000004   6.892550
20   20   1     1.0000  -3.031464   7.248001   6.931322
21   21   1     1.0000  -1.280821   9.771406   7.024290
22   22   1     1.0000   1.883424   2.474470   6.940840
23   23   1     1.0000   1.243220   5.139033   7.121401
24   24   1     1.0000  -0.268164   7.533751   7.025886
25   25   1     1.0000   5.888266   0.527524   7.190505
26   26   1     1.0000   4.328424   2.954468   6.978646
27   27   1     1.0000   3.612419   5.413100   7.366937
28   28   1     1.0000   2.574488   7.641550   7.141963
29   29   1     1.0000   8.643889   0.261866   6.746156
30   30   1     1.0000   7.415840   2.722599   6.982747
31   31   1     1.0000   6.691878   5.012594   6.894790
32   32   1     1.0000   5.434845   7.293121   6.984259
33   33   1     1.0000   1.780482   1.154289   11.933645
34   34   1     1.0000   0.542129   3.409348   11.656337
35   35   1     1.0000  -0.459361   6.266037   11.844988
36   36   1     1.0000  -1.897745   8.276721   11.489212
37   37   1     1.0000   4.585513   1.338053   11.688992
38   38   1     1.0000   3.367168   3.536298   11.954921
39   39   1     1.0000   2.206231   6.051362   11.538622
40   40   1     1.0000   1.212518   8.330875   11.790708
41   41   1     1.0000   7.518226   1.201239   11.631492
42   42   1     1.0000   6.473562   3.759090   11.641612
43   43   1     1.0000   5.306304   6.243773   11.811311
44   44   1     1.0000   3.936970   7.998319   11.507282
45   45   1     1.0000   10.477239   0.997558   11.658646
46   46   1     1.0000   9.298520   3.554060   11.543940
47   47   1     1.0000   8.260258   5.947057   11.666176
48   48   1     1.0000   6.755486   8.345019   11.627741
49   49   2     3.0000   6.458682   9.484557   0.012471
50   50   2     3.0000   10.607351   2.624254   13.949594
51   51   2     3.0000   9.398374   5.160135   13.991515
52   52   2     3.0000   7.627634   7.189905   0.065898
53   53   2     3.0000  -1.999741   9.387100   0.054672
54   54   2     3.0000   2.061516   2.631071   13.792001
55   55   2     3.0000   1.028295   5.023841   13.933497
56   56   2     3.0000  -0.749592   7.033655   0.049046
57   57   2     3.0000   1.315773   9.920880   13.898476
58   58   2     3.0000   4.366654   2.476490   0.005193
59   59   2     3.0000   3.328283   4.784896   0.198758
60   60   2     3.0000   1.925494   7.062766   0.036868
61   61   2     3.0000   8.665085   0.456313   13.846212
62   62   2     3.0000   7.765746   2.781815   13.806810
63   63   2     3.0000   6.033380   4.713662   0.098693
64   64   2     3.0000   4.876106   7.177198   0.031885
65   65   2     3.0000   1.726609   0.858413   4.639647
66   66   2     3.0000   0.667851   3.227143   4.500306
67   67   2     3.0000  -0.428663   5.878164   4.464754
68   68   2     3.0000  -1.573963   8.272890   4.865866
69   69   2     3.0000   4.317407   0.883873   4.609133
70   70   2     3.0000   3.381721   3.248386   4.788589
71   71   2     3.0000   2.300966   5.753851   4.829754
72   72   2     3.0000   1.020321   8.110753   4.668593
73   73   2     3.0000   7.287270   0.992437   4.609945
74   74   2     3.0000   6.307095   3.295987   4.681932
75   75   2     3.0000   5.035374   5.729990   4.703039
76   76   2     3.0000   3.794923   8.117995   4.682981
77   77   2     3.0000   10.304823   0.936266   4.600791
78   78   2     3.0000   9.053266   3.212310   4.646827
79   79   2     3.0000   7.906338   5.836155   4.544397
80   80   2     3.0000   6.599428   8.122288   4.641130
81   81   2     3.0000   0.699929   1.917375   9.179383
82   82   2     3.0000  -0.561535   4.251329   9.181720
83   83   2     3.0000  -1.848870   6.771202   9.342126
84   84   2     3.0000  -2.806075   9.258363   9.308729
85   85   2     3.0000   3.212712   1.954213   9.538406
86   86   2     3.0000   1.942220   4.318512   9.430601
87   87   2     3.0000   0.915223   6.957822   9.466993
88   88   2     3.0000  -0.264658   9.290052   9.395679
89   89   2     3.0000   6.220444   2.171484   9.433079
90   90   2     3.0000   5.004406   4.443100   9.525123
91   91   2     3.0000   3.878499   6.721273   9.412237
92   92   2     3.0000   2.776765   9.350704   9.366453
93   93   2     3.0000   9.114689   1.926393   9.140303
94   94   2     3.0000   7.930595   4.386079   9.110041
95   95   2     3.0000   6.761228   6.683634   9.459015
96   96   2     3.0000   5.622312   9.006428   9.299337
97   97   3     0.9600  -4.302080   9.599735   3.669248
98   97   4    -2.9600  -4.302080   9.599735   3.669248
99   98   3     0.9600  -0.874615   2.520426   3.624555
100  98   4    -2.9600  -0.874615   2.520426   3.624555
101  99   3     0.9600  -1.817007   5.124243   3.580213
102  99   4    -2.9600  -1.817007   5.124243   3.580213
103  100  3     0.9600   7.751719   7.281770   3.543946
104  100  4    -2.9600   7.751719   7.281770   3.543946
105  101  3     0.9600  -1.873009   9.631232   3.586455
106  101  4    -2.9600  -1.873009   9.631232   3.586455
107  102  3     0.9600   1.775991   2.380462   3.384408
108  102  4    -2.9600   1.775991   2.380462   3.384408
109  103  3     0.9600   0.530411   4.983200   3.421626
110  103  4    -2.9600   0.530411   4.983200   3.421626
111  104  3     0.9600  -0.309479   7.507943   3.631568
112  104  4    -2.9600  -0.309479   7.507943   3.631568
113  105  3     0.9600   5.856428   0.169849   3.771454
114  105  4    -2.9600   5.856428   0.169849   3.771454
115  106  3     0.9600   4.564930   2.371360   3.791847
116  106  4    -2.9600   4.564930   2.371360   3.791847
117  107  3     0.9600   3.626431   4.883363   3.981983
118  107  4    -2.9600   3.626431   4.883363   3.981983
119  108  3     0.9600   2.236796   7.282451   3.685610
120  108  4    -2.9600   2.236796   7.282451   3.685610
121  109  3     0.9600   3.676009   9.553990   3.405474
122  109  4    -2.9600   3.676009   9.553990   3.405474
123  110  3     0.9600   6.968340   2.377487   3.491444
124  110  4    -2.9600   6.968340   2.377487   3.491444
125  111  3     0.9600   6.161980   4.995854   3.613581
126  111  4    -2.9600   6.161980   4.995854   3.613581
127  112  3     0.9600   4.682222   7.020031   3.602356
128  112  4    -2.9600   4.682222   7.020031   3.602356
129  113  3     0.9600   1.243426   0.525095   0.967292
130  113  4    -2.9600   1.243426   0.525095   0.967292
131  114  3     0.9600   0.147028   2.767417   0.849017
132  114  4    -2.9600   0.147028   2.767417   0.849017
133  115  3     0.9600  -0.841347   5.506229   0.809811
134  115  4    -2.9600  -0.841347   5.506229   0.809811
135  116  3     0.9600  -2.128403   7.928281   1.066013
136  116  4    -2.9600  -2.128403   7.928281   1.066013
137  117  3     0.9600   4.348638   0.925341   1.028599
138  117  4    -2.9600   4.348638   0.925341   1.028599
139  118  3     0.9600   3.387488   3.179380   1.193945
140  118  4    -2.9600   3.387488   3.179380   1.193945
141  119  3     0.9600   1.849195   5.453453   0.978055
142  119  4    -2.9600   1.849195   5.453453   0.978055
143  120  3     0.9600   0.827142   8.113628   1.244223
144  120  4    -2.9600   0.827142   8.113628   1.244223
145  121  3     0.9600   7.018810   0.829462   0.882988
146  121  4    -2.9600   7.018810   0.829462   0.882988
147  122  3     0.9600   6.008411   3.229762   1.011046
148  122  4    -2.9600   6.008411   3.229762   1.011046
149  123  3     0.9600   4.821036   5.640663   0.825278
150  123  4    -2.9600   4.821036   5.640663   0.825278
151  124  3     0.9600   3.356737   7.724412   0.963331
152  124  4    -2.9600   3.356737   7.724412   0.963331
153  125  3     0.9600   9.952123   0.674397   1.143920
154  125  4    -2.9600   9.952123   0.674397   1.143920
155  126  3     0.9600   9.013997   3.137083   1.029271
156  126  4    -2.9600   9.013997   3.137083   1.029271
157  127  3     0.9600   7.581549   5.641999   1.001752
158  127  4    -2.9600   7.581549   5.641999   1.001752
159  128  3     0.9600   6.413335   7.805669   1.205465
160  128  4    -2.9600   6.413335   7.805669   1.205465
161  129  3     0.9600   2.132728   1.285251   8.192523
162  129  4    -2.9600   2.132728   1.285251   8.192523
163  130  3     0.9600   0.729111   3.386256   8.085544
164  130  4    -2.9600   0.729111   3.386256   8.085544
165  131  3     0.9600  -0.412232   5.860516   8.386312
166  131  4    -2.9600  -0.412232   5.860516   8.386312
167  132  3     0.9600  -1.835365   8.176965   8.205820
168  132  4    -2.9600  -1.835365   8.176965   8.205820
169  133  3     0.9600   4.511791   1.363183   8.228579
170  133  4    -2.9600   4.511791   1.363183   8.228579
171  134  3     0.9600   3.547756   3.676627   8.581150
172  134  4    -2.9600   3.547756   3.676627   8.581150
173  135  3     0.9600   2.386883   6.043585   8.589394
174  135  4    -2.9600   2.386883   6.043585   8.589394
175  136  3     0.9600   1.024136   8.550541   8.626585
176  136  4    -2.9600   1.024136   8.550541   8.626585
177  137  3     0.9600   7.447900   1.227581   8.360473
178  137  4    -2.9600   7.447900   1.227581   8.360473
179  138  3     0.9600   6.425983   3.654540   8.389531
180  138  4    -2.9600   6.425983   3.654540   8.389531
181  139  3     0.9600   5.090087   5.901224   8.395928
182  139  4    -2.9600   5.090087   5.901224   8.395928
183  140  3     0.9600   3.998431   8.351973   8.317125
184  140  4    -2.9600   3.998431   8.351973   8.317125
185  141  3     0.9600   10.712182   1.019820   8.193895
186  141  4    -2.9600   10.712182   1.019820   8.193895
187  142  3     0.9600   8.973351   3.284055   7.902799
188  142  4    -2.9600   8.973351   3.284055   7.902799
189  143  3     0.9600   8.019440   5.866416   8.179716
190  143  4    -2.9600   8.019440   5.866416   8.179716
191  144  3     0.9600   6.669328   8.028632   8.347834
192  144  4    -2.9600   6.669328   8.028632   8.347834
193  145  3     0.9600   0.466164   1.846159   5.606393
194  145  4    -2.9600   0.466164   1.846159   5.606393
195  146  3     0.9600  -0.721275   4.165188   5.369101
196  146  4    -2.9600  -0.721275   4.165188   5.369101
197  147  3     0.9600  -1.635353   6.713019   5.761843
198  147  4    -2.9600  -1.635353   6.713019   5.761843
199  148  3     0.9600  -2.835981   9.205494   5.801735
200  148  4    -2.9600  -2.835981   9.205494   5.801735
201  149  3     0.9600   3.069435   1.636742   5.620096
202  149  4    -2.9600   3.069435   1.636742   5.620096
203  150  3     0.9600   1.837519   3.985491   5.680129
204  150  4    -2.9600   1.837519   3.985491   5.680129
205  151  3     0.9600   0.932420   6.650913   5.578846
206  151  4    -2.9600   0.932420   6.650913   5.578846
207  152  3     0.9600  -0.078322   9.040719   5.813898
208  152  4    -2.9600  -0.078322   9.040719   5.813898
209  153  3     0.9600   6.266110   1.904812   5.802687
210  153  4    -2.9600   6.266110   1.904812   5.802687
211  154  3     0.9600   5.303182   4.357138   5.868697
212  154  4    -2.9600   5.303182   4.357138   5.868697
213  155  3     0.9600   3.930148   6.685590   5.859850
214  155  4    -2.9600   3.930148   6.685590   5.859850
215  156  3     0.9600   2.721283   8.969121   5.821625
216  156  4    -2.9600   2.721283   8.969121   5.821625
217  157  3     0.9600   8.835506   1.654234   5.430926
218  157  4    -2.9600   8.835506   1.654234   5.430926
219  158  3     0.9600   7.798871   4.144245   5.607596
220  158  4    -2.9600   7.798871   4.144245   5.607596
221  159  3     0.9600   6.455879   6.485800   5.517875
222  159  4    -2.9600   6.455879   6.485800   5.517875
223  160  3     0.9600   5.392410   8.971336   5.584291
224  160  4    -2.9600   5.392410   8.971336   5.584291
225  161  3     0.9600   0.348005   1.711472   12.802482
226  161  4    -2.9600   0.348005   1.711472   12.802482
227  162  3     0.9600  -0.539855   4.249390   12.976955
228  162  4    -2.9600  -0.539855   4.249390   12.976955
229  163  3     0.9600  -1.784804   6.866199   12.983645
230  163  4    -2.9600  -1.784804   6.866199   12.983645
231  164  3     0.9600  -3.125537   9.046140   12.798045
232  164  4    -2.9600  -3.125537   9.046140   12.798045
233  165  3     0.9600   3.554264   1.841404   13.187414
234  165  4    -2.9600   3.554264   1.841404   13.187414
235  166  3     0.9600   2.466661   4.430996   13.196302
236  166  4    -2.9600   2.466661   4.430996   13.196302
237  167  3     0.9600   1.157451   6.765235   12.996481
238  167  4    -2.9600   1.157451   6.765235   12.996481
239  168  3     0.9600  -0.127715   9.000532   13.155025
240  168  4    -2.9600  -0.127715   9.000532   13.155025
241  169  3     0.9600   5.946443   1.912889   12.788401
242  169  4    -2.9600   5.946443   1.912889   12.788401
243  170  3     0.9600   5.328812   4.395735   12.955763
244  170  4    -2.9600   5.328812   4.395735   12.955763
245  171  3     0.9600   3.850766   6.721913   13.000946
246  171  4    -2.9600   3.850766   6.721913   13.000946
247  172  3     0.9600   2.358021   8.943532   12.998706
248  172  4    -2.9600   2.358021   8.943532   12.998706
249  173  3     0.9600   9.219813   2.107102   12.738362
250  173  4    -2.9600   9.219813   2.107102   12.738362
251  174  3     0.9600   7.862560   4.247683   13.025693
252  174  4    -2.9600   7.862560   4.247683   13.025693
253  175  3     0.9600   6.819848   6.738561   12.930625
254  175  4    -2.9600   6.819848   6.738561   12.930625
255  176  3     0.9600   5.549574   9.049331   12.989118
256  176  4    -2.9600   5.549574   9.049331   12.989118
257  177  3     0.9600   0.651451   0.511327   10.392700
258  177  4    -2.9600   0.651451   0.511327   10.392700
259  178  3     0.9600   10.488730   2.529573   10.146087
260  178  4    -2.9600   10.488730   2.529573   10.146087
261  179  3     0.9600   9.346046   5.059412   10.203026
262  179  4    -2.9600   9.346046   5.059412   10.203026
263  180  3     0.9600  -3.161677   7.717562   10.172345
264  180  4    -2.9600  -3.161677   7.717562   10.172345
265  181  3     0.9600   3.233661   0.400118   10.619438
266  181  4    -2.9600   3.233661   0.400118   10.619438
267  182  3     0.9600   1.824796   2.688870   10.671087
268  182  4    -2.9600   1.824796   2.688870   10.671087
269  183  3     0.9600   0.744809   5.431244   10.721070
270  183  4    -2.9600   0.744809   5.431244   10.721070
271  184  3     0.9600  -0.443502   7.726582   10.398621
272  184  4    -2.9600  -0.443502   7.726582   10.398621
273  185  3     0.9600   6.247340   0.612653   10.398075
274  185  4    -2.9600   6.247340   0.612653   10.398075
275  186  3     0.9600   4.931762   2.904902   10.603649
276  186  4    -2.9600   4.931762   2.904902   10.603649
277  187  3     0.9600   3.932366   5.369821   10.760038
278  187  4    -2.9600   3.932366   5.369821   10.760038
279  188  3     0.9600   2.584961   7.702920   10.414367
280  188  4    -2.9600   2.584961   7.702920   10.414367
281  189  3     0.9600   9.115667   0.336226   10.458458
282  189  4    -2.9600   9.115667   0.336226   10.458458
283  190  3     0.9600   7.824405   2.901472   10.232364
284  190  4    -2.9600   7.824405   2.901472   10.232364
285  191  3     0.9600   6.664727   5.005447   10.360465
286  191  4    -2.9600   6.664727   5.005447   10.360465
287  192  3     0.9600   5.315758   7.501645   10.421520
288  192  4    -2.9600   5.315758   7.501645   10.421520

Bonds

1    1    97   98  
2    1    99   100 
3    1    101  102 
4    1    103  104 
5    1    105  106 
6    1    107  108 
7    1    109  110 
8    1    111  112 
9    1    113  114 
10   1    115  116 
11   1    117  118 
12   1    119  120 
13   1    121  122 
14   1    123  124 
15   1    125  126 
16   1    127  128 
17   1    129  130 
18   1    131  132 
19   1    133  134 
20   1    135  136 
21   1    137  138 
22   1    139  140 
23   1    141  142 
24   1    143  144 
25   1    145  146 
26   1    147  148 
27   1    149  150 
28   1    151  152 
29   1    153  154 
30   1    155  156 
31   1    157  158 
32   1    159  160 
33   1    161  162 
34   1    163  164 
35   1    165  166 
36   1    167  168 
37   1    169  170 
38   1    171  172 
39   1    173  174 
40   1    175  176 
41   1    177  178 
42   1    179  180 
43   1    181  182 
44   1    183  184 
45   1    185  186 
46   1    187  188 
47   1    189  190 
48   1    191  192 
49   1    193  194 
50   1    195  196 
51   1    197  198 
52   1    199  200 
53   1    201  202 
54   1    203  204 
55   1    205  206 
56   1    207  208 
57   1    209  210 
58   1    211  212 
59   1    213  214 
60   1    215  216 
61   1    217  218 
62   1    219  220 
63   1    221  222 
64   1    223  224 
65   1    225  226 
66   1    227  228 
67   1    229  230 
68   1    231  232 
69   1    233  234 
70   1    235  236 
71   1    237  238 
72   1    239  240 
73   1    241  242 
74   1    243  244 
75   1    245  246 
76   1    247  248 
77   1    249  250 
78   1    251  252 
79   1    253  254 
80   1    255  256 
81   1    257  258 
82   1    259  260 
83   1    261  262 
84   1    263  264 
85   1    265  266 
86   1    267  268 
87   1    269  270 
88   1    271  272 
89   1    273  274 
90   1    275  276 
91   1    277  278 
92   1    279  280 
93   1    281  282 
94   1    283  284 
95   1    285  286 
96   1    287  288 

