title

2304   atoms
768   bonds

4   atom types
1   bond types


0.0 21.831472 xlo xhi
0.0 20.121716 ylo yhi
0.0 28.105434 zlo zhi

0.00000 0.00000 0.00000 xy xz yz 

Masses

1   6.94100 # Li
2  58.69340 # Ni
3  14.39910 # O core
4   1.59990 # O shell

Atoms

1    1    1     1.0000   2.681451   1.206960   2.668525
2    2    1     1.0000   2.681451   1.206960   16.721241
3    3    1     1.0000   2.681451   11.267818   2.668525
4    4    1     1.0000   2.681451   11.267818   16.721241
5    5    1     1.0000   13.597188   1.206960   2.668525
6    6    1     1.0000   13.597188   1.206960   16.721241
7    7    1     1.0000   13.597188   11.267818   2.668525
8    8    1     1.0000   13.597188   11.267818   16.721241
9    9    1     1.0000   2.724250   6.231390   2.324916
10   10   1     1.0000   2.724250   6.231390   16.377632
11   11   1     1.0000   2.724250   16.292248   2.324916
12   12   1     1.0000   2.724250   16.292248   16.377632
13   13   1     1.0000   13.639986   6.231390   2.324916
14   14   1     1.0000   13.639986   6.231390   16.377632
15   15   1     1.0000   13.639986   16.292248   2.324916
16   16   1     1.0000   13.639986   16.292248   16.377632
17   17   1     1.0000   5.304351   1.169618   2.369308
18   18   1     1.0000   5.304351   1.169618   16.422025
19   19   1     1.0000   5.304351   11.230476   2.369308
20   20   1     1.0000   5.304351   11.230476   16.422025
21   21   1     1.0000   16.220087   1.169618   2.369308
22   22   1     1.0000   16.220087   1.169618   16.422025
23   23   1     1.0000   16.220087   11.230476   2.369308
24   24   1     1.0000   16.220087   11.230476   16.422025
25   25   1     1.0000   5.730743   6.699442   2.255626
26   26   1     1.0000   5.730743   6.699442   16.308343
27   27   1     1.0000   5.730743   16.760300   2.255626
28   28   1     1.0000   5.730743   16.760300   16.308343
29   29   1     1.0000   16.646479   6.699442   2.255626
30   30   1     1.0000   16.646479   6.699442   16.308343
31   31   1     1.0000   16.646479   16.760300   2.255626
32   32   1     1.0000   16.646479   16.760300   16.308343
33   33   1     1.0000   7.967730   1.688547   2.223364
34   34   1     1.0000   7.967730   1.688547   16.276081
35   35   1     1.0000   7.967730   11.749405   2.223364
36   36   1     1.0000   7.967730   11.749405   16.276081
37   37   1     1.0000   18.883466   1.688547   2.223364
38   38   1     1.0000   18.883466   1.688547   16.276081
39   39   1     1.0000   18.883466   11.749405   2.223364
40   40   1     1.0000   18.883466   11.749405   16.276081
41   41   1     1.0000   8.209259   6.321689   2.100046
42   42   1     1.0000   8.209259   6.321689   16.152763
43   43   1     1.0000   8.209259   16.382547   2.100046
44   44   1     1.0000   8.209259   16.382547   16.152763
45   45   1     1.0000   19.124995   6.321689   2.100046
46   46   1     1.0000   19.124995   6.321689   16.152763
47   47   1     1.0000   19.124995   16.382547   2.100046
48   48   1     1.0000   19.124995   16.382547   16.152763
49   49   1     1.0000   10.800710   1.571810   2.111270
50   50   1     1.0000   10.800710   1.571810   16.163986
51   51   1     1.0000   10.800710   11.632667   2.111270
52   52   1     1.0000   10.800710   11.632667   16.163986
53   53   1     1.0000   21.716447   1.571810   2.111270
54   54   1     1.0000   21.716447   1.571810   16.163986
55   55   1     1.0000   21.716447   11.632667   2.111270
56   56   1     1.0000   21.716447   11.632667   16.163986
57   57   1     1.0000   10.661876   6.329711   2.484797
58   58   1     1.0000   10.661876   6.329711   16.537514
59   59   1     1.0000   10.661876   16.390569   2.484797
60   60   1     1.0000   10.661876   16.390569   16.537514
61   61   1     1.0000   21.577612   6.329711   2.484797
62   62   1     1.0000   21.577612   6.329711   16.537514
63   63   1     1.0000   21.577612   16.390569   2.484797
64   64   1     1.0000   21.577612   16.390569   16.537514
65   65   1     1.0000   1.532879   4.006862   2.396482
66   66   1     1.0000   1.532879   4.006862   16.449198
67   67   1     1.0000   1.532879   14.067720   2.396482
68   68   1     1.0000   1.532879   14.067720   16.449198
69   69   1     1.0000   12.448615   4.006862   2.396482
70   70   1     1.0000   12.448615   4.006862   16.449198
71   71   1     1.0000   12.448615   14.067720   2.396482
72   72   1     1.0000   12.448615   14.067720   16.449198
73   73   1     1.0000   0.971377   8.999196   2.635414
74   74   1     1.0000   0.971377   8.999196   16.688131
75   75   1     1.0000   0.971377   19.060053   2.635414
76   76   1     1.0000   0.971377   19.060053   16.688131
77   77   1     1.0000   11.887113   8.999196   2.635414
78   78   1     1.0000   11.887113   8.999196   16.688131
79   79   1     1.0000   11.887113   19.060053   2.635414
80   80   1     1.0000   11.887113   19.060053   16.688131
81   81   1     1.0000   4.010014   3.979672   2.568473
82   82   1     1.0000   4.010014   3.979672   16.621189
83   83   1     1.0000   4.010014   14.040530   2.568473
84   84   1     1.0000   4.010014   14.040530   16.621189
85   85   1     1.0000   14.925750   3.979672   2.568473
86   86   1     1.0000   14.925750   3.979672   16.621189
87   87   1     1.0000   14.925750   14.040530   2.568473
88   88   1     1.0000   14.925750   14.040530   16.621189
89   89   1     1.0000   4.142173   8.986519   2.380490
90   90   1     1.0000   4.142173   8.986519   16.433207
91   91   1     1.0000   4.142173   19.047376   2.380490
92   92   1     1.0000   4.142173   19.047376   16.433207
93   93   1     1.0000   15.057910   8.986519   2.380490
94   94   1     1.0000   15.057910   8.986519   16.433207
95   95   1     1.0000   15.057910   19.047376   2.380490
96   96   1     1.0000   15.057910   19.047376   16.433207
97   97   1     1.0000   6.628868   3.752288   2.268401
98   98   1     1.0000   6.628868   3.752288   16.321117
99   99   1     1.0000   6.628868   13.813146   2.268401
100  100  1     1.0000   6.628868   13.813146   16.321117
101  101  1     1.0000   17.544605   3.752288   2.268401
102  102  1     1.0000   17.544605   3.752288   16.321117
103  103  1     1.0000   17.544605   13.813146   2.268401
104  104  1     1.0000   17.544605   13.813146   16.321117
105  105  1     1.0000   6.853635   9.078614   2.139873
106  106  1     1.0000   6.853635   9.078614   16.192590
107  107  1     1.0000   6.853635   19.139471   2.139873
108  108  1     1.0000   6.853635   19.139471   16.192590
109  109  1     1.0000   17.769371   9.078614   2.139873
110  110  1     1.0000   17.769371   9.078614   16.192590
111  111  1     1.0000   17.769371   19.139471   2.139873
112  112  1     1.0000   17.769371   19.139471   16.192590
113  113  1     1.0000   9.683093   4.096276   2.701275
114  114  1     1.0000   9.683093   4.096276   16.753992
115  115  1     1.0000   9.683093   14.157134   2.701275
116  116  1     1.0000   9.683093   14.157134   16.753992
117  117  1     1.0000   20.598829   4.096276   2.701275
118  118  1     1.0000   20.598829   4.096276   16.753992
119  119  1     1.0000   20.598829   14.157134   2.701275
120  120  1     1.0000   20.598829   14.157134   16.753992
121  121  1     1.0000   9.047537   9.306998   2.317020
122  122  1     1.0000   9.047537   9.306998   16.369737
123  123  1     1.0000   9.047537   19.367855   2.317020
124  124  1     1.0000   9.047537   19.367855   16.369737
125  125  1     1.0000   19.963273   9.306998   2.317020
126  126  1     1.0000   19.963273   9.306998   16.369737
127  127  1     1.0000   19.963273   19.367855   2.317020
128  128  1     1.0000   19.963273   19.367855   16.369737
129  129  1     1.0000   1.418333   0.556596   11.684754
130  130  1     1.0000   1.418333   0.556596   25.737471
131  131  1     1.0000   1.418333   10.617453   11.684754
132  132  1     1.0000   1.418333   10.617453   25.737471
133  133  1     1.0000   12.334069   0.556596   11.684754
134  134  1     1.0000   12.334069   0.556596   25.737471
135  135  1     1.0000   12.334069   10.617453   11.684754
136  136  1     1.0000   12.334069   10.617453   25.737471
137  137  1     1.0000   1.227911   5.451805   11.955073
138  138  1     1.0000   1.227911   5.451805   26.007790
139  139  1     1.0000   1.227911   15.512663   11.955073
140  140  1     1.0000   1.227911   15.512663   26.007790
141  141  1     1.0000   12.143647   5.451805   11.955073
142  142  1     1.0000   12.143647   5.451805   26.007790
143  143  1     1.0000   12.143647   15.512663   11.955073
144  144  1     1.0000   12.143647   15.512663   26.007790
145  145  1     1.0000   4.177825   0.623821   11.763974
146  146  1     1.0000   4.177825   0.623821   25.816691
147  147  1     1.0000   4.177825   10.684679   11.763974
148  148  1     1.0000   4.177825   10.684679   25.816691
149  149  1     1.0000   15.093562   0.623821   11.763974
150  150  1     1.0000   15.093562   0.623821   25.816691
151  151  1     1.0000   15.093562   10.684679   11.763974
152  152  1     1.0000   15.093562   10.684679   25.816691
153  153  1     1.0000   3.791837   5.774971   11.444012
154  154  1     1.0000   3.791837   5.774971   25.496728
155  155  1     1.0000   3.791837   15.835829   11.444012
156  156  1     1.0000   3.791837   15.835829   25.496728
157  157  1     1.0000   14.707573   5.774971   11.444012
158  158  1     1.0000   14.707573   5.774971   25.496728
159  159  1     1.0000   14.707573   15.835829   11.444012
160  160  1     1.0000   14.707573   15.835829   25.496728
161  161  1     1.0000   6.478462   0.251011   11.557847
162  162  1     1.0000   6.478462   0.251011   25.610564
163  163  1     1.0000   6.478462   10.311869   11.557847
164  164  1     1.0000   6.478462   10.311869   25.610564
165  165  1     1.0000   17.394198   0.251011   11.557847
166  166  1     1.0000   17.394198   0.251011   25.610564
167  167  1     1.0000   17.394198   10.311869   11.557847
168  168  1     1.0000   17.394198   10.311869   25.610564
169  169  1     1.0000   6.601479   5.501221   11.928714
170  170  1     1.0000   6.601479   5.501221   25.981430
171  171  1     1.0000   6.601479   15.562079   11.928714
172  172  1     1.0000   6.601479   15.562079   25.981430
173  173  1     1.0000   17.517215   5.501221   11.928714
174  174  1     1.0000   17.517215   5.501221   25.981430
175  175  1     1.0000   17.517215   15.562079   11.928714
176  176  1     1.0000   17.517215   15.562079   25.981430
177  177  1     1.0000   9.472563   0.478633   11.700301
178  178  1     1.0000   9.472563   0.478633   25.753018
179  179  1     1.0000   9.472563   10.539491   11.700301
180  180  1     1.0000   9.472563   10.539491   25.753018
181  181  1     1.0000   20.388299   0.478633   11.700301
182  182  1     1.0000   20.388299   0.478633   25.753018
183  183  1     1.0000   20.388299   10.539491   11.700301
184  184  1     1.0000   20.388299   10.539491   25.753018
185  185  1     1.0000   9.534118   5.108238   11.641602
186  186  1     1.0000   9.534118   5.108238   25.694318
187  187  1     1.0000   9.534118   15.169096   11.641602
188  188  1     1.0000   9.534118   15.169096   25.694318
189  189  1     1.0000   20.449854   5.108238   11.641602
190  190  1     1.0000   20.449854   5.108238   25.694318
191  191  1     1.0000   20.449854   15.169096   11.641602
192  192  1     1.0000   20.449854   15.169096   25.694318
193  193  1     1.0000   10.772847   2.998358   11.798499
194  194  1     1.0000   10.772847   2.998358   25.851216
195  195  1     1.0000   10.772847   13.059216   11.798499
196  196  1     1.0000   10.772847   13.059216   25.851216
197  197  1     1.0000   21.688583   2.998358   11.798499
198  198  1     1.0000   21.688583   2.998358   25.851216
199  199  1     1.0000   21.688583   13.059216   11.798499
200  200  1     1.0000   21.688583   13.059216   25.851216
201  201  1     1.0000   0.066949   8.301471   11.989669
202  202  1     1.0000   0.066949   8.301471   26.042386
203  203  1     1.0000   0.066949   18.362329   11.989669
204  204  1     1.0000   0.066949   18.362329   26.042386
205  205  1     1.0000   10.982685   8.301471   11.989669
206  206  1     1.0000   10.982685   8.301471   26.042386
207  207  1     1.0000   10.982685   18.362329   11.989669
208  208  1     1.0000   10.982685   18.362329   26.042386
209  209  1     1.0000   2.633526   3.257659   11.872154
210  210  1     1.0000   2.633526   3.257659   25.924871
211  211  1     1.0000   2.633526   13.318517   11.872154
212  212  1     1.0000   2.633526   13.318517   25.924871
213  213  1     1.0000   13.549262   3.257659   11.872154
214  214  1     1.0000   13.549262   3.257659   25.924871
215  215  1     1.0000   13.549262   13.318517   11.872154
216  216  1     1.0000   13.549262   13.318517   25.924871
217  217  1     1.0000   2.581051   8.114515   11.488833
218  218  1     1.0000   2.581051   8.114515   25.541550
219  219  1     1.0000   2.581051   18.175373   11.488833
220  220  1     1.0000   2.581051   18.175373   25.541550
221  221  1     1.0000   13.496788   8.114515   11.488833
222  222  1     1.0000   13.496788   8.114515   25.541550
223  223  1     1.0000   13.496788   18.175373   11.488833
224  224  1     1.0000   13.496788   18.175373   25.541550
225  225  1     1.0000   5.414075   2.932005   11.813092
226  226  1     1.0000   5.414075   2.932005   25.865809
227  227  1     1.0000   5.414075   12.992863   11.813092
228  228  1     1.0000   5.414075   12.992863   25.865809
229  229  1     1.0000   16.329811   2.932005   11.813092
230  230  1     1.0000   16.329811   2.932005   25.865809
231  231  1     1.0000   16.329811   12.992863   11.813092
232  232  1     1.0000   16.329811   12.992863   25.865809
233  233  1     1.0000   5.364945   8.153028   11.788994
234  234  1     1.0000   5.364945   8.153028   25.841710
235  235  1     1.0000   5.364945   18.213886   11.788994
236  236  1     1.0000   5.364945   18.213886   25.841710
237  237  1     1.0000   16.280682   8.153028   11.788994
238  238  1     1.0000   16.280682   8.153028   25.841710
239  239  1     1.0000   16.280682   18.213886   11.788994
240  240  1     1.0000   16.280682   18.213886   25.841710
241  241  1     1.0000   8.073049   3.031002   11.521174
242  242  1     1.0000   8.073049   3.031002   25.573890
243  243  1     1.0000   8.073049   13.091860   11.521174
244  244  1     1.0000   8.073049   13.091860   25.573890
245  245  1     1.0000   18.988785   3.031002   11.521174
246  246  1     1.0000   18.988785   3.031002   25.573890
247  247  1     1.0000   18.988785   13.091860   11.521174
248  248  1     1.0000   18.988785   13.091860   25.573890
249  249  1     1.0000   8.402577   8.100074   11.669792
250  250  1     1.0000   8.402577   8.100074   25.722509
251  251  1     1.0000   8.402577   18.160932   11.669792
252  252  1     1.0000   8.402577   18.160932   25.722509
253  253  1     1.0000   19.318313   8.100074   11.669792
254  254  1     1.0000   19.318313   8.100074   25.722509
255  255  1     1.0000   19.318313   18.160932   11.669792
256  256  1     1.0000   19.318313   18.160932   25.722509
257  257  1     1.0000   10.789949   4.757997   7.127964
258  258  1     1.0000   10.789949   4.757997   21.180681
259  259  1     1.0000   10.789949   14.818855   7.127964
260  260  1     1.0000   10.789949   14.818855   21.180681
261  261  1     1.0000   21.705685   4.757997   7.127964
262  262  1     1.0000   21.705685   4.757997   21.180681
263  263  1     1.0000   21.705685   14.818855   7.127964
264  264  1     1.0000   21.705685   14.818855   21.180681
265  265  1     1.0000   0.101335   9.670110   7.257457
266  266  1     1.0000   0.101335   9.670110   21.310174
267  267  1     1.0000   0.101335   19.730967   7.257457
268  268  1     1.0000   0.101335   19.730967   21.310174
269  269  1     1.0000   11.017071   9.670110   7.257457
270  270  1     1.0000   11.017071   9.670110   21.310174
271  271  1     1.0000   11.017071   19.730967   7.257457
272  272  1     1.0000   11.017071   19.730967   21.310174
273  273  1     1.0000   2.860689   4.399290   7.167903
274  274  1     1.0000   2.860689   4.399290   21.220620
275  275  1     1.0000   2.860689   14.460148   7.167903
276  276  1     1.0000   2.860689   14.460148   21.220620
277  277  1     1.0000   13.776426   4.399290   7.167903
278  278  1     1.0000   13.776426   4.399290   21.220620
279  279  1     1.0000   13.776426   14.460148   7.167903
280  280  1     1.0000   13.776426   14.460148   21.220620
281  281  1     1.0000   2.783866   9.748502   6.985021
282  282  1     1.0000   2.783866   9.748502   21.037738
283  283  1     1.0000   2.783866   19.809360   6.985021
284  284  1     1.0000   2.783866   19.809360   21.037738
285  285  1     1.0000   13.699603   9.748502   6.985021
286  286  1     1.0000   13.699603   9.748502   21.037738
287  287  1     1.0000   13.699603   19.809360   6.985021
288  288  1     1.0000   13.699603   19.809360   21.037738
289  289  1     1.0000   5.323262   4.869685   6.992409
290  290  1     1.0000   5.323262   4.869685   21.045125
291  291  1     1.0000   5.323262   14.930543   6.992409
292  292  1     1.0000   5.323262   14.930543   21.045125
293  293  1     1.0000   16.238998   4.869685   6.992409
294  294  1     1.0000   16.238998   4.869685   21.045125
295  295  1     1.0000   16.238998   14.930543   6.992409
296  296  1     1.0000   16.238998   14.930543   21.045125
297  297  1     1.0000   5.323426   9.475793   6.968097
298  298  1     1.0000   5.323426   9.475793   21.020814
299  299  1     1.0000   5.323426   19.536650   6.968097
300  300  1     1.0000   5.323426   19.536650   21.020814
301  301  1     1.0000   16.239163   9.475793   6.968097
302  302  1     1.0000   16.239163   9.475793   21.020814
303  303  1     1.0000   16.239163   19.536650   6.968097
304  304  1     1.0000   16.239163   19.536650   21.020814
305  305  1     1.0000   8.263117   4.658089   6.760682
306  306  1     1.0000   8.263117   4.658089   20.813398
307  307  1     1.0000   8.263117   14.718947   6.760682
308  308  1     1.0000   8.263117   14.718947   20.813398
309  309  1     1.0000   19.178853   4.658089   6.760682
310  310  1     1.0000   19.178853   4.658089   20.813398
311  311  1     1.0000   19.178853   14.718947   6.760682
312  312  1     1.0000   19.178853   14.718947   20.813398
313  313  1     1.0000   7.953922   9.855199   7.042209
314  314  1     1.0000   7.953922   9.855199   21.094925
315  315  1     1.0000   7.953922   19.916057   7.042209
316  316  1     1.0000   7.953922   19.916057   21.094925
317  317  1     1.0000   18.869658   9.855199   7.042209
318  318  1     1.0000   18.869658   9.855199   21.094925
319  319  1     1.0000   18.869658   19.916057   7.042209
320  320  1     1.0000   18.869658   19.916057   21.094925
321  321  1     1.0000   1.319852   1.976351   6.895092
322  322  1     1.0000   1.319852   1.976351   20.947809
323  323  1     1.0000   1.319852   12.037209   6.895092
324  324  1     1.0000   1.319852   12.037209   20.947809
325  325  1     1.0000   12.235588   1.976351   6.895092
326  326  1     1.0000   12.235588   1.976351   20.947809
327  327  1     1.0000   12.235588   12.037209   6.895092
328  328  1     1.0000   12.235588   12.037209   20.947809
329  329  1     1.0000   1.255791   7.250465   7.016726
330  330  1     1.0000   1.255791   7.250465   21.069442
331  331  1     1.0000   1.255791   17.311323   7.016726
332  332  1     1.0000   1.255791   17.311323   21.069442
333  333  1     1.0000   12.171527   7.250465   7.016726
334  334  1     1.0000   12.171527   7.250465   21.069442
335  335  1     1.0000   12.171527   17.311323   7.016726
336  336  1     1.0000   12.171527   17.311323   21.069442
337  337  1     1.0000   4.057749   2.144713   7.013026
338  338  1     1.0000   4.057749   2.144713   21.065743
339  339  1     1.0000   4.057749   12.205571   7.013026
340  340  1     1.0000   4.057749   12.205571   21.065743
341  341  1     1.0000   14.973485   2.144713   7.013026
342  342  1     1.0000   14.973485   2.144713   21.065743
343  343  1     1.0000   14.973485   12.205571   7.013026
344  344  1     1.0000   14.973485   12.205571   21.065743
345  345  1     1.0000   3.947786   7.170423   6.949633
346  346  1     1.0000   3.947786   7.170423   21.002349
347  347  1     1.0000   3.947786   17.231280   6.949633
348  348  1     1.0000   3.947786   17.231280   21.002349
349  349  1     1.0000   14.863522   7.170423   6.949633
350  350  1     1.0000   14.863522   7.170423   21.002349
351  351  1     1.0000   14.863522   17.231280   6.949633
352  352  1     1.0000   14.863522   17.231280   21.002349
353  353  1     1.0000   6.676542   2.265415   6.945820
354  354  1     1.0000   6.676542   2.265415   20.998537
355  355  1     1.0000   6.676542   12.326273   6.945820
356  356  1     1.0000   6.676542   12.326273   20.998537
357  357  1     1.0000   17.592279   2.265415   6.945820
358  358  1     1.0000   17.592279   2.265415   20.998537
359  359  1     1.0000   17.592279   12.326273   6.945820
360  360  1     1.0000   17.592279   12.326273   20.998537
361  361  1     1.0000   6.691745   7.145455   6.860275
362  362  1     1.0000   6.691745   7.145455   20.912992
363  363  1     1.0000   6.691745   17.206313   6.860275
364  364  1     1.0000   6.691745   17.206313   20.912992
365  365  1     1.0000   17.607481   7.145455   6.860275
366  366  1     1.0000   17.607481   7.145455   20.912992
367  367  1     1.0000   17.607481   17.206313   6.860275
368  368  1     1.0000   17.607481   17.206313   20.912992
369  369  1     1.0000   9.588620   2.153303   6.977969
370  370  1     1.0000   9.588620   2.153303   21.030685
371  371  1     1.0000   9.588620   12.214161   6.977969
372  372  1     1.0000   9.588620   12.214161   21.030685
373  373  1     1.0000   20.504356   2.153303   6.977969
374  374  1     1.0000   20.504356   2.153303   21.030685
375  375  1     1.0000   20.504356   12.214161   6.977969
376  376  1     1.0000   20.504356   12.214161   21.030685
377  377  1     1.0000   9.372291   7.325998   6.920504
378  378  1     1.0000   9.372291   7.325998   20.973220
379  379  1     1.0000   9.372291   17.386856   6.920504
380  380  1     1.0000   9.372291   17.386856   20.973220
381  381  1     1.0000   20.288027   7.325998   6.920504
382  382  1     1.0000   20.288027   7.325998   20.973220
383  383  1     1.0000   20.288027   17.386856   6.920504
384  384  1     1.0000   20.288027   17.386856   20.973220
385  385  2     3.0000   0.045945   4.545273   0.076826
386  386  2     3.0000   0.045945   4.545273   14.129543
387  387  2     3.0000   0.045945   14.606131   0.076826
388  388  2     3.0000   0.045945   14.606131   14.129543
389  389  2     3.0000   10.961681   4.545273   0.076826
390  390  2     3.0000   10.961681   4.545273   14.129543
391  391  2     3.0000   10.961681   14.606131   0.076826
392  392  2     3.0000   10.961681   14.606131   14.129543
393  393  2     3.0000   0.100675   9.698338   0.076793
394  394  2     3.0000   0.100675   9.698338   14.129509
395  395  2     3.0000   0.100675   19.759196   0.076793
396  396  2     3.0000   0.100675   19.759196   14.129509
397  397  2     3.0000   11.016411   9.698338   0.076793
398  398  2     3.0000   11.016411   9.698338   14.129509
399  399  2     3.0000   11.016411   19.759196   0.076793
400  400  2     3.0000   11.016411   19.759196   14.129509
401  401  2     3.0000   2.880439   4.848433   0.210580
402  402  2     3.0000   2.880439   4.848433   14.263297
403  403  2     3.0000   2.880439   14.909291   0.210580
404  404  2     3.0000   2.880439   14.909291   14.263297
405  405  2     3.0000   13.796176   4.848433   0.210580
406  406  2     3.0000   13.796176   4.848433   14.263297
407  407  2     3.0000   13.796176   14.909291   0.210580
408  408  2     3.0000   13.796176   14.909291   14.263297
409  409  2     3.0000   2.835813   9.837806   0.028200
410  410  2     3.0000   2.835813   9.837806   14.080917
411  411  2     3.0000   2.835813   19.898664   0.028200
412  412  2     3.0000   2.835813   19.898664   14.080917
413  413  2     3.0000   13.751550   9.837806   0.028200
414  414  2     3.0000   13.751550   9.837806   14.080917
415  415  2     3.0000   13.751550   19.898664   0.028200
416  416  2     3.0000   13.751550   19.898664   14.080917
417  417  2     3.0000   5.478891   4.581955   0.022481
418  418  2     3.0000   5.478891   4.581955   14.075198
419  419  2     3.0000   5.478891   14.642813   0.022481
420  420  2     3.0000   5.478891   14.642813   14.075198
421  421  2     3.0000   16.394627   4.581955   0.022481
422  422  2     3.0000   16.394627   4.581955   14.075198
423  423  2     3.0000   16.394627   14.642813   0.022481
424  424  2     3.0000   16.394627   14.642813   14.075198
425  425  2     3.0000   5.533903   9.719973   14.030385
426  426  2     3.0000   5.533903   9.719973   28.083102
427  427  2     3.0000   5.533903   19.780831   14.030385
428  428  2     3.0000   5.533903   19.780831   28.083102
429  429  2     3.0000   16.449640   9.719973   14.030385
430  430  2     3.0000   16.449640   9.719973   28.083102
431  431  2     3.0000   16.449640   19.780831   14.030385
432  432  2     3.0000   16.449640   19.780831   28.083102
433  433  2     3.0000   8.356335   4.698555   0.011070
434  434  2     3.0000   8.356335   4.698555   14.063787
435  435  2     3.0000   8.356335   14.759413   0.011070
436  436  2     3.0000   8.356335   14.759413   14.063787
437  437  2     3.0000   19.272071   4.698555   0.011070
438  438  2     3.0000   19.272071   4.698555   14.063787
439  439  2     3.0000   19.272071   14.759413   0.011070
440  440  2     3.0000   19.272071   14.759413   14.063787
441  441  2     3.0000   8.285181   9.782388   13.954055
442  442  2     3.0000   8.285181   9.782388   28.006772
443  443  2     3.0000   8.285181   19.843245   13.954055
444  444  2     3.0000   8.285181   19.843245   28.006772
445  445  2     3.0000   19.200917   9.782388   13.954055
446  446  2     3.0000   19.200917   9.782388   28.006772
447  447  2     3.0000   19.200917   19.843245   13.954055
448  448  2     3.0000   19.200917   19.843245   28.006772
449  449  2     3.0000   1.547731   2.269286   0.250766
450  450  2     3.0000   1.547731   2.269286   14.303483
451  451  2     3.0000   1.547731   12.330144   0.250766
452  452  2     3.0000   1.547731   12.330144   14.303483
453  453  2     3.0000   12.463467   2.269286   0.250766
454  454  2     3.0000   12.463467   2.269286   14.303483
455  455  2     3.0000   12.463467   12.330144   0.250766
456  456  2     3.0000   12.463467   12.330144   14.303483
457  457  2     3.0000   1.474880   7.171724   13.995034
458  458  2     3.0000   1.474880   7.171724   28.047751
459  459  2     3.0000   1.474880   17.232582   13.995034
460  460  2     3.0000   1.474880   17.232582   28.047751
461  461  2     3.0000   12.390616   7.171724   13.995034
462  462  2     3.0000   12.390616   7.171724   28.047751
463  463  2     3.0000   12.390616   17.232582   13.995034
464  464  2     3.0000   12.390616   17.232582   28.047751
465  465  2     3.0000   4.199800   2.191294   0.097468
466  466  2     3.0000   4.199800   2.191294   14.150185
467  467  2     3.0000   4.199800   12.252151   0.097468
468  468  2     3.0000   4.199800   12.252151   14.150185
469  469  2     3.0000   15.115536   2.191294   0.097468
470  470  2     3.0000   15.115536   2.191294   14.150185
471  471  2     3.0000   15.115536   12.252151   0.097468
472  472  2     3.0000   15.115536   12.252151   14.150185
473  473  2     3.0000   4.157288   7.387842   14.017560
474  474  2     3.0000   4.157288   7.387842   28.070277
475  475  2     3.0000   4.157288   17.448700   14.017560
476  476  2     3.0000   4.157288   17.448700   28.070277
477  477  2     3.0000   15.073024   7.387842   14.017560
478  478  2     3.0000   15.073024   7.387842   28.070277
479  479  2     3.0000   15.073024   17.448700   14.017560
480  480  2     3.0000   15.073024   17.448700   28.070277
481  481  2     3.0000   6.937921   2.147356   13.874885
482  482  2     3.0000   6.937921   2.147356   27.927602
483  483  2     3.0000   6.937921   12.208213   13.874885
484  484  2     3.0000   6.937921   12.208213   27.927602
485  485  2     3.0000   17.853657   2.147356   13.874885
486  486  2     3.0000   17.853657   2.147356   27.927602
487  487  2     3.0000   17.853657   12.208213   13.874885
488  488  2     3.0000   17.853657   12.208213   27.927602
489  489  2     3.0000   6.955790   7.322806   0.008920
490  490  2     3.0000   6.955790   7.322806   14.061637
491  491  2     3.0000   6.955790   17.383664   0.008920
492  492  2     3.0000   6.955790   17.383664   14.061637
493  493  2     3.0000   17.871527   7.322806   0.008920
494  494  2     3.0000   17.871527   7.322806   14.061637
495  495  2     3.0000   17.871527   17.383664   0.008920
496  496  2     3.0000   17.871527   17.383664   14.061637
497  497  2     3.0000   9.598813   2.204050   0.062973
498  498  2     3.0000   9.598813   2.204050   14.115690
499  499  2     3.0000   9.598813   12.264907   0.062973
500  500  2     3.0000   9.598813   12.264907   14.115690
501  501  2     3.0000   20.514550   2.204050   0.062973
502  502  2     3.0000   20.514550   2.204050   14.115690
503  503  2     3.0000   20.514550   12.264907   0.062973
504  504  2     3.0000   20.514550   12.264907   14.115690
505  505  2     3.0000   9.618271   7.160281   0.037419
506  506  2     3.0000   9.618271   7.160281   14.090135
507  507  2     3.0000   9.618271   17.221139   0.037419
508  508  2     3.0000   9.618271   17.221139   14.090135
509  509  2     3.0000   20.534007   7.160281   0.037419
510  510  2     3.0000   20.534007   7.160281   14.090135
511  511  2     3.0000   20.534007   17.221139   0.037419
512  512  2     3.0000   20.534007   17.221139   14.090135
513  513  2     3.0000   1.329406   0.495737   4.668643
514  514  2     3.0000   1.329406   0.495737   18.721360
515  515  2     3.0000   1.329406   10.556594   4.668643