title

288   atoms
96   bonds

4   atom types
1   bond types


0.0 10.915736 xlo xhi
0.0 10.060858 ylo yhi
0.0 14.052717 zlo zhi

0.00000 0.00000 0.00000 xy xz yz 

Masses

1   6.94100 # Li
2  58.69340 # Ni
3  14.39910 # O core
4   1.59990 # O shell

Atoms

1    1    1     1.0000   2.618038   1.325778   2.258082
2    2    1     1.0000   2.967361   6.552748   2.375813
3    3    1     1.0000   5.265312   1.734895   2.633837
4    4    1     1.0000   5.823187   6.585846   2.140384
5    5    1     1.0000   8.093073   1.395222   2.820602
6    6    1     1.0000   8.235282   6.271327   2.392261
7    7    1     1.0000   10.648818   1.221632   2.454224
8    8    1     1.0000   0.018834   6.344191   2.150257
9    9    1     1.0000   1.374220   3.887904   2.483909
10   10   1     1.0000   1.461827   8.939908   2.311526
11   11   1     1.0000   4.118494   4.233134   2.297019
12   12   1     1.0000   4.059921   9.031037   2.393829
13   13   1     1.0000   6.678108   3.827533   2.373805
14   14   1     1.0000   6.929713   9.040335   2.708401
15   15   1     1.0000   9.579440   3.641681   2.140665
16   16   1     1.0000   9.413925   8.721945   2.460925
17   17   1     1.0000   1.392989   0.610469   11.729468
18   18   1     1.0000   1.283002   5.471720   11.712361
19   19   1     1.0000   3.990509   0.671561   11.798043
20   20   1     1.0000   4.172431   5.558541   11.782651
21   21   1     1.0000   6.678856   0.315610   11.707696
22   22   1     1.0000   6.997528   5.546649   11.812522
23   23   1     1.0000   9.542978   0.244353   11.604701
24   24   1     1.0000   9.448841   5.429810   11.502008
25   25   1     1.0000   10.898691   2.904875   11.617353
26   26   1     1.0000   0.184717   7.770941   11.767631
27   27   1     1.0000   2.726142   3.305340   11.540529
28   28   1     1.0000   2.844069   7.857727   11.680676
29   29   1     1.0000   5.562805   3.010457   11.681429
30   30   1     1.0000   5.608119   7.904295   11.920512
31   31   1     1.0000   7.867394   3.008185   11.945766
32   32   1     1.0000   8.244926   8.014130   11.799517
33   33   1     1.0000   0.135692   4.823701   7.192435
34   34   1     1.0000   10.615214   9.729016   6.927515
35   35   1     1.0000   2.691665   4.889772   6.964810
36   36   1     1.0000   2.591270   9.540615   6.899206
37   37   1     1.0000   5.564650   4.689241   7.057754
38   38   1     1.0000   5.730187   9.757509   7.044522
39   39   1     1.0000   8.348543   4.532973   6.896656
40   40   1     1.0000   8.222690   9.857248   7.007580
41   41   1     1.0000   1.278852   2.057761   7.169992
42   42   1     1.0000   1.430895   7.054394   6.891237
43   43   1     1.0000   4.168058   2.317747   6.819177
44   44   1     1.0000   4.479987   6.916491   7.471446
45   45   1     1.0000   6.593748   2.098222   7.096878
46   46   1     1.0000   7.156993   7.421142   6.967717
47   47   1     1.0000   9.420277   2.266316   6.773976
48   48   1     1.0000   9.710770   7.216374   6.886779
49   49   2     3.0000   0.227551   4.453417   13.931622
50   50   2     3.0000   10.858456   9.602854   14.027851
51   51   2     3.0000   2.676075   4.642457   0.068040
52   52   2     3.0000   2.607351   9.610059   13.834729
53   53   2     3.0000   5.529035   4.645766   13.928903
54   54   2     3.0000   5.433800   9.816177   13.956921
55   55   2     3.0000   8.265376   4.644094   13.986155
56   56   2     3.0000   8.282470   9.853960   14.018104
57   57   2     3.0000   1.168021   2.053245   13.951670
58   58   2     3.0000   1.343425   7.041189   14.037823
59   59   2     3.0000   4.056081   2.247374   13.993487
60   60   2     3.0000   4.134927   7.119661   0.128538
61   61   2     3.0000   6.766684   2.075508   0.093631
62   62   2     3.0000   6.974028   7.286081   14.021506
63   63   2     3.0000   9.411174   2.079693   14.045889
64   64   2     3.0000   9.366730   7.317459   0.013676
65   65   2     3.0000   1.397959   0.634290   4.679380
66   66   2     3.0000   1.511782   5.441799   4.678836
67   67   2     3.0000   3.977622   0.634957   4.683038
68   68   2     3.0000   4.335027   5.591426   4.848925
69   69   2     3.0000   6.817539   0.386708   4.848137
70   70   2     3.0000   6.913284   5.569407   4.784766
71   71   2     3.0000   9.538899   0.568122   4.691456
72   72   2     3.0000   9.711739   5.468933   4.731286
73   73   2     3.0000   2.795694   3.145260   4.862815
74   74   2     3.0000   2.845621   8.063529   4.667173
75   75   2     3.0000   5.582724   3.139314   4.695481
76   76   2     3.0000   5.545891   7.982945   4.729490
77   77   2     3.0000   8.287726   3.096486   4.617854
78   78   2     3.0000   8.421781   8.124564   4.630710
79   79   2     3.0000   0.033861   3.139045   4.686427
80   80   2     3.0000   0.051967   8.191826   4.488152
81   81   2     3.0000   10.860964   1.330389   9.346271
82   82   2     3.0000   10.790955   6.304195   9.241613
83   83   2     3.0000   2.628945   1.374930   9.366330
84   84   2     3.0000   2.661794   6.388245   9.422333
85   85   2     3.0000   5.293926   1.257130   9.288194
86   86   2     3.0000   5.483799   6.433396   9.471706
87   87   2     3.0000   8.133446   1.326659   9.461423
88   88   2     3.0000   8.256661   6.405643   9.315883
89   89   2     3.0000   1.218721   3.868470   9.420854
90   90   2     3.0000   1.333681   8.905125   9.333531
91   91   2     3.0000   3.879256   3.990579   9.400395
92   92   2     3.0000   4.059637   9.005540   9.445868
93   93   2     3.0000   6.690140   3.691680   9.552962
94   94   2     3.0000   6.751082   8.923004   9.410487
95   95   2     3.0000   9.542695   3.884258   9.377114
96   96   2     3.0000   9.563693   8.951373   9.279660
97   97   3    -2.0000   2.866230   4.732672   3.570827
98   97   4     0.0000   2.866230   4.732672   3.570827
99   98   3    -2.0000   2.760746   0.080520   3.548276
100  98   4     0.0000   2.760746   0.080520   3.548276
101  99   3    -2.0000   5.591414   4.793520   3.784048
102  99   4     0.0000   5.591414   4.793520   3.784048
103  100  3    -2.0000   5.391512   9.957170   3.549117
104  100  4     0.0000   5.391512   9.957170   3.549117
105  101  3    -2.0000   8.295661   4.871098   3.780863
106  101  4     0.0000   8.295661   4.871098   3.780863
107  102  3    -2.0000   8.400928   9.783029   3.495399
108  102  4     0.0000   8.400928   9.783029   3.495399
109  103  3    -2.0000   0.081325   4.952160   3.657714
110  103  4     0.0000   0.081325   4.952160   3.657714
111  104  3    -2.0000   0.025786   9.998270   3.768010
112  104  4     0.0000   0.025786   9.998270   3.768010
113  105  3    -2.0000   1.555915   2.587518   3.785327
114  105  4     0.0000   1.555915   2.587518   3.785327
115  106  3    -2.0000   1.644179   7.609181   3.468985
116  106  4     0.0000   1.644179   7.609181   3.468985
117  107  3    -2.0000   4.072093   2.386419   3.626050
118  107  4     0.0000   4.072093   2.386419   3.626050
119  108  3    -2.0000   4.298277   7.197331   3.750997
120  108  4     0.0000   4.298277   7.197331   3.750997
121  109  3    -2.0000   6.775019   2.136331   3.781974
122  109  4     0.0000   6.775019   2.136331   3.781974
123  110  3    -2.0000   7.016288   7.233858   3.709612
124  110  4     0.0000   7.016288   7.233858   3.709612
125  111  3    -2.0000   9.791842   2.235587   3.642524
126  111  4     0.0000   9.791842   2.235587   3.642524
127  112  3    -2.0000   9.432957   7.144516   3.646907
128  112  4     0.0000   9.432957   7.144516   3.646907
129  113  3    -2.0000   10.813059   4.669577   10.666766
130  113  4     0.0000   10.813059   4.669577   10.666766
131  114  3    -2.0000   0.047345   9.966566   10.342003
132  114  4     0.0000   0.047345   9.966566   10.342003
133  115  3    -2.0000   2.455009   4.766041   10.443104
134  115  4     0.0000   2.455009   4.766041   10.443104
135  116  3    -2.0000   2.650455   9.771307   10.276021
136  116  4     0.0000   2.650455   9.771307   10.276021
137  117  3    -2.0000   5.170741   4.703989   10.357946
138  117  4     0.0000   5.170741   4.703989   10.357946
139  118  3    -2.0000   5.364106   9.720460   10.286830
140  118  4     0.0000   5.364106   9.720460   10.286830
141  119  3    -2.0000   8.094036   4.185980   10.520938
142  119  4     0.0000   8.094036   4.185980   10.520938
143  120  3    -2.0000   8.096773   9.687481   10.452856
144  120  4     0.0000   8.096773   9.687481   10.452856
145  121  3    -2.0000   1.169200   2.422498   10.556355
146  121  4     0.0000   1.169200   2.422498   10.556355
147  122  3    -2.0000   1.404213   7.448202   10.480596
148  122  4     0.0000   1.404213   7.448202   10.480596
149  123  3    -2.0000   3.876013   2.310187   10.441159
150  123  4     0.0000   3.876013   2.310187   10.441159
151  124  3    -2.0000   4.257854   7.517329   10.330812
152  124  4     0.0000   4.257854   7.517329   10.330812
153  125  3    -2.0000   6.648703   1.914611   10.392647
154  125  4     0.0000   6.648703   1.914611   10.392647
155  126  3    -2.0000   6.959160   7.062323   10.434820
156  126  4     0.0000   6.959160   7.062323   10.434820
157  127  3    -2.0000   9.618734   1.773948   10.457926
158  127  4     0.0000   9.618734   1.773948   10.457926
159  128  3    -2.0000   9.432247   7.050593   10.464698
160  128  4     0.0000   9.432247   7.050593   10.464698
161  129  3    -2.0000   1.373209   0.578277   8.388767
162  129  4     0.0000   1.373209   0.578277   8.388767
163  130  3    -2.0000   1.360184   5.256970   8.363838
164  130  4     0.0000   1.360184   5.256970   8.363838
165  131  3    -2.0000   4.075126   0.428785   8.323898
166  131  4     0.0000   4.075126   0.428785   8.323898
167  132  3    -2.0000   4.023214   5.492133   8.282433
168  132  4     0.0000   4.023214   5.492133   8.282433
169  133  3    -2.0000   6.970352   0.596115   8.052689
170  133  4     0.0000   6.970352   0.596115   8.052689
171  134  3    -2.0000   6.787657   5.650613   8.443285
172  134  4     0.0000   6.787657   5.650613   8.443285
173  135  3    -2.0000   9.861688   0.539949   8.271219
174  135  4     0.0000   9.861688   0.539949   8.271219
175  136  3    -2.0000   9.407712   5.606149   8.370044
176  136  4     0.0000   9.407712   5.606149   8.370044
177  137  3    -2.0000   0.025470   2.946618   8.367903
178  137  4     0.0000   0.025470   2.946618   8.367903
179  138  3    -2.0000   0.077912   8.177185   8.427550
180  138  4     0.0000   0.077912   8.177185   8.427550
181  139  3    -2.0000   2.594853   3.195871   8.363681
182  139  4     0.0000   2.594853   3.195871   8.363681
183  140  3    -2.0000   2.477283   8.145702   8.332588
184  140  4     0.0000   2.477283   8.145702   8.332588
185  141  3    -2.0000   5.190387   2.910482   8.394829
186  141  4     0.0000   5.190387   2.910482   8.394829
187  142  3    -2.0000   5.439125   8.276815   8.304263
188  142  4     0.0000   5.439125   8.276815   8.304263
189  143  3    -2.0000   8.004704   2.772968   8.356456
190  143  4     0.0000   8.004704   2.772968   8.356456
191  144  3    -2.0000   8.241102   8.209408   8.357155
192  144  4     0.0000   8.241102   8.209408   8.357155
193  145  3    -2.0000   1.371722   0.210075   0.960070
194  145  4     0.0000   1.371722   0.210075   0.960070
195  146  3    -2.0000   1.405171   5.539281   1.150813
196  146  4     0.0000   1.405171   5.539281   1.150813
197  147  3    -2.0000   4.048752   0.422583   0.965173
198  147  4     0.0000   4.048752   0.422583   0.965173
199  148  3    -2.0000   4.275858   5.485322   1.024416
200  148  4     0.0000   4.275858   5.485322   1.024416
201  149  3    -2.0000   6.928258   0.265371   0.937503
202  149  4     0.0000   6.928258   0.265371   0.937503
203  150  3    -2.0000   6.796820   5.469907   0.906355
204  150  4     0.0000   6.796820   5.469907   0.906355
205  151  3    -2.0000   9.355057   0.476599   1.009439
206  151  4     0.0000   9.355057   0.476599   1.009439
207  152  3    -2.0000   9.384221   5.514539   1.060864
208  152  4     0.0000   9.384221   5.514539   1.060864
209  153  3    -2.0000   10.780479   2.762052   1.108197
210  153  4     0.0000   10.780479   2.762052   1.108197
211  154  3    -2.0000   10.809837   8.021433   1.003104
212  154  4     0.0000   10.809837   8.021433   1.003104
213  155  3    -2.0000   2.411103   2.723229   0.975488
214  155  4     0.0000   2.411103   2.723229   0.975488
215  156  3    -2.0000   2.600117   7.977546   0.912490
216  156  4     0.0000   2.600117   7.977546   0.912490
217  157  3    -2.0000   5.524379   3.082037   1.041770
218  157  4     0.0000   5.524379   3.082037   1.041770
219  158  3    -2.0000   5.367691   8.112955   0.983094
220  158  4     0.0000   5.367691   8.112955   0.983094
221  159  3    -2.0000   8.168375   2.776595   0.989363
222  159  4     0.0000   8.168375   2.776595   0.989363
223  160  3    -2.0000   8.104932   8.347639   0.972146
224  160  4     0.0000   8.104932   8.347639   0.972146
225  161  3    -2.0000   10.656847   1.351744   12.981508
226  161  4     0.0000   10.656847   1.351744   12.981508
227  162  3    -2.0000   10.838605   6.298946   13.224091
228  162  4     0.0000   10.838605   6.298946   13.224091
229  163  3    -2.0000   2.659145   1.187531   12.919384
230  163  4     0.0000   2.659145   1.187531   12.919384
231  164  3    -2.0000   2.801436   6.259324   13.082000
232  164  4     0.0000   2.801436   6.259324   13.082000
233  165  3    -2.0000   5.580796   1.339330   13.046989
234  165  4     0.0000   5.580796   1.339330   13.046989
235  166  3    -2.0000   5.420504   6.377610   12.897209
236  166  4     0.0000   5.420504   6.377610   12.897209
237  167  3    -2.0000   8.120526   1.375668   13.118040
238  167  4     0.0000   8.120526   1.375668   13.118040
239  168  3    -2.0000   8.240606   6.386534   12.775720
240  168  4     0.0000   8.240606   6.386534   12.775720
241  169  3    -2.0000   1.442889   3.686043   12.906786
242  169  4     0.0000   1.442889   3.686043   12.906786
243  170  3    -2.0000   1.328508   8.905591   12.895106
244  170  4     0.0000   1.328508   8.905591   12.895106
245  171  3    -2.0000   4.182665   3.854205   12.922219
246  171  4     0.0000   4.182665   3.854205   12.922219
247  172  3    -2.0000   3.896302   9.029696   12.786015
248  172  4     0.0000   3.896302   9.029696   12.786015
249  173  3    -2.0000   6.756724   4.021287   12.908847
250  173  4     0.0000   6.756724   4.021287   12.908847
251  174  3    -2.0000   6.845547   8.951472   12.893866
252  174  4     0.0000   6.845547   8.951472   12.893866
253  175  3    -2.0000   9.470951   3.693990   13.096471
254  175  4     0.0000   9.470951   3.693990   13.096471
255  176  3    -2.0000   9.611922   9.042046   13.042928
256  176  4     0.0000   9.611922   9.042046   13.042928
257  177  3    -2.0000   2.674168   1.312346   5.556926
258  177  4     0.0000   2.674168   1.312346   5.556926
259  178  3    -2.0000   2.752663   6.376178   5.705093
260  178  4     0.0000   2.752663   6.376178   5.705093
261  179  3    -2.0000   5.338292   1.582584   5.690267
262  179  4     0.0000   5.338292   1.582584   5.690267
263  180  3    -2.0000   5.544184   6.393428   5.961532
264  180  4     0.0000   5.544184   6.393428   5.961532
265  181  3    -2.0000   8.100623   1.181953   5.874781
266  181  4     0.0000   8.100623   1.181953   5.874781
267  182  3    -2.0000   8.527476   6.177473   5.874130
268  182  4     0.0000   8.527476   6.177473   5.874130
269  183  3    -2.0000   0.205685   1.383926   5.860697
270  183  4     0.0000   0.205685   1.383926   5.860697
271  184  3    -2.0000   10.915053   6.408242   5.745885
272  184  4     0.0000   10.915053   6.408242   5.745885
273  185  3    -2.0000   1.383616   3.687458   5.683357
274  185  4     0.0000   1.383616   3.687458   5.683357
275  186  3    -2.0000   1.539365   8.734521   5.435881
276  186  4     0.0000   1.539365   8.734521   5.435881
277  187  3    -2.0000   4.113613   3.848915   5.813755
278  187  4     0.0000   4.113613   3.848915   5.813755
279  188  3    -2.0000   4.113528   9.105834   5.659083
280  188  4     0.0000   4.113528   9.105834   5.659083
281  189  3    -2.0000   6.716060   3.776956   5.683176
282  189  4     0.0000   6.716060   3.776956   5.683176
283  190  3    -2.0000   6.961171   8.764133   5.700047
284  190  4     0.0000   6.961171   8.764133   5.700047
285  191  3    -2.0000   9.727159   3.845437   5.772257
286  191  4     0.0000   9.727159   3.845437   5.772257
287  192  3    -2.0000   9.670094   8.922910   5.713648
288  192  4     0.0000   9.670094   8.922910   5.713648

Bonds

1    1    97   98  
2    1    99   100 
3    1    101  102 
4    1    103  104 
5    1    105  106 
6    1    107  108 
7    1    109  110 
8    1    111  112 
9    1    113  114 
10   1    115  116 
11   1    117  118 
12   1    119  120 
13   1    121  122 
14   1    123  124 
15   1    125  126 
16   1    127  128 
17   1    129  130 
18   1    131  132 
19   1    133  134 
20   1    135  136 
21   1    137  138 
22   1    139  140 
23   1    141  142 
24   1    143  144 
25   1    145  146 
26   1    147  148 
27   1    149  150 
28   1    151  152 
29   1    153  154 
30   1    155  156 
31   1    157  158 
32   1    159  160 
33   1    161  162 
34   1    163  164 
35   1    165  166 
36   1    167  168 
37   1    169  170 
38   1    171  172 
39   1    173  174 
40   1    175  176 
41   1    177  178 
42   1    179  180 
43   1    181  182 
44   1    183  184 
45   1    185  186 
46   1    187  188 
47   1    189  190 
48   1    191  192 
49   1    193  194 
50   1    195  196 
51   1    197  198 
52   1    199  200 
53   1    201  202 
54   1    203  204 
55   1    205  206 
56   1    207  208 
57   1    209  210 
58   1    211  212 
59   1    213  214 
60   1    215  216 
61   1    217  218 
62   1    219  220 
63   1    221  222 
64   1    223  224 
65   1    225  226 
66   1    227  228 
67   1    229  230 
68   1    231  232 
69   1    233  234 
70   1    235  236 
71   1    237  238 
72   1    239  240 
73   1    241  242 
74   1    243  244 
75   1    245  246 
76   1    247  248 
77   1    249  250 
78   1    251  252 
79   1    253  254 
80   1    255  256 
81   1    257  258 
82   1    259  260 
83   1    261  262 
84   1    263  264 
85   1    265  266 
86   1    267  268 
87   1    269  270 
88   1    271  272 
89   1    273  274 
90   1    275  276 
91   1    277  278 
92   1    279  280 
93   1    281  282 
94   1    283  284 
95   1    285  286 
96   1    287  288 

