title

1536   atoms
3   atom types

0.0 21.831472 xlo xhi
0.0 20.121716 ylo yhi
0.0 28.105434 zlo zhi

0.00000 0.00000 0.00000 xy xz yz 

Masses

1   6.94100 # Li
2  58.69340 # Ni
3  15.99990 # O

Atoms

1    1    1     1.0000   2.666540   1.446758   2.312332
2    2    1     1.0000   2.666540   1.446758   16.365049
3    3    1     1.0000   2.666540   11.507616   2.312332
4    4    1     1.0000   2.666540   11.507616   16.365049
5    5    1     1.0000   13.582276   1.446758   2.312332
6    6    1     1.0000   13.582276   1.446758   16.365049
7    7    1     1.0000   13.582276   11.507616   2.312332
8    8    1     1.0000   13.582276   11.507616   16.365049
9    9    1     1.0000   2.845633   6.682438   2.336121
10   10   1     1.0000   2.845633   6.682438   16.388838
11   11   1     1.0000   2.845633   16.743296   2.336121
12   12   1     1.0000   2.845633   16.743296   16.388838
13   13   1     1.0000   13.761370   6.682438   2.336121
14   14   1     1.0000   13.761370   6.682438   16.388838
15   15   1     1.0000   13.761370   16.743296   2.336121
16   16   1     1.0000   13.761370   16.743296   16.388838
17   17   1     1.0000   5.596769   1.292599   2.117299
18   18   1     1.0000   5.596769   1.292599   16.170016
19   19   1     1.0000   5.596769   11.353457   2.117299
20   20   1     1.0000   5.596769   11.353457   16.170016
21   21   1     1.0000   16.512505   1.292599   2.117299
22   22   1     1.0000   16.512505   1.292599   16.170016
23   23   1     1.0000   16.512505   11.353457   2.117299
24   24   1     1.0000   16.512505   11.353457   16.170016
25   25   1     1.0000   5.678723   6.524981   2.394238
26   26   1     1.0000   5.678723   6.524981   16.446955
27   27   1     1.0000   5.678723   16.585839   2.394238
28   28   1     1.0000   5.678723   16.585839   16.446955
29   29   1     1.0000   16.594460   6.524981   2.394238
30   30   1     1.0000   16.594460   6.524981   16.446955
31   31   1     1.0000   16.594460   16.585839   2.394238
32   32   1     1.0000   16.594460   16.585839   16.446955
33   33   1     1.0000   8.172427   1.493424   2.277159
34   34   1     1.0000   8.172427   1.493424   16.329876
35   35   1     1.0000   8.172427   11.554282   2.277159
36   36   1     1.0000   8.172427   11.554282   16.329876
37   37   1     1.0000   19.088163   1.493424   2.277159
38   38   1     1.0000   19.088163   1.493424   16.329876
39   39   1     1.0000   19.088163   11.554282   2.277159
40   40   1     1.0000   19.088163   11.554282   16.329876
41   41   1     1.0000   8.010494   6.338041   2.264479
42   42   1     1.0000   8.010494   6.338041   16.317196
43   43   1     1.0000   8.010494   16.398899   2.264479
44   44   1     1.0000   8.010494   16.398899   16.317196
45   45   1     1.0000   18.926230   6.338041   2.264479
46   46   1     1.0000   18.926230   6.338041   16.317196
47   47   1     1.0000   18.926230   16.398899   2.264479
48   48   1     1.0000   18.926230   16.398899   16.317196
49   49   1     1.0000   0.197364   0.996079   2.269712
50   50   1     1.0000   0.197364   0.996079   16.322429
51   51   1     1.0000   0.197364   11.056937   2.269712
52   52   1     1.0000   0.197364   11.056937   16.322429
53   53   1     1.0000   11.113100   0.996079   2.269712
54   54   1     1.0000   11.113100   0.996079   16.322429
55   55   1     1.0000   11.113100   11.056937   2.269712
56   56   1     1.0000   11.113100   11.056937   16.322429
57   57   1     1.0000   10.839276   6.424326   2.167315
58   58   1     1.0000   10.839276   6.424326   16.220032
59   59   1     1.0000   10.839276   16.485184   2.167315
60   60   1     1.0000   10.839276   16.485184   16.220032
61   61   1     1.0000   21.755012   6.424326   2.167315
62   62   1     1.0000   21.755012   6.424326   16.220032
63   63   1     1.0000   21.755012   16.485184   2.167315
64   64   1     1.0000   21.755012   16.485184   16.220032
65   65   1     1.0000   1.662324   3.898266   2.405075
66   66   1     1.0000   1.662324   3.898266   16.457792
67   67   1     1.0000   1.662324   13.959123   2.405075
68   68   1     1.0000   1.662324   13.959123   16.457792
69   69   1     1.0000   12.578060   3.898266   2.405075
70   70   1     1.0000   12.578060   3.898266   16.457792
71   71   1     1.0000   12.578060   13.959123   2.405075
72   72   1     1.0000   12.578060   13.959123   16.457792
73   73   1     1.0000   1.495224   8.593000   2.435136
74   74   1     1.0000   1.495224   8.593000   16.487853
75   75   1     1.0000   1.495224   18.653858   2.435136
76   76   1     1.0000   1.495224   18.653858   16.487853
77   77   1     1.0000   12.410961   8.593000   2.435136
78   78   1     1.0000   12.410961   8.593000   16.487853
79   79   1     1.0000   12.410961   18.653858   2.435136
80   80   1     1.0000   12.410961   18.653858   16.487853
81   81   1     1.0000   4.234497   4.002257   2.333945
82   82   1     1.0000   4.234497   4.002257   16.386662
83   83   1     1.0000   4.234497   14.063114   2.333945
84   84   1     1.0000   4.234497   14.063114   16.386662
85   85   1     1.0000   15.150234   4.002257   2.333945
86   86   1     1.0000   15.150234   4.002257   16.386662
87   87   1     1.0000   15.150234   14.063114   2.333945
88   88   1     1.0000   15.150234   14.063114   16.386662
89   89   1     1.0000   4.341998   8.729943   2.355291
90   90   1     1.0000   4.341998   8.729943   16.408008
91   91   1     1.0000   4.341998   18.790801   2.355291
92   92   1     1.0000   4.341998   18.790801   16.408008
93   93   1     1.0000   15.257734   8.729943   2.355291
94   94   1     1.0000   15.257734   8.729943   16.408008
95   95   1     1.0000   15.257734   18.790801   2.355291
96   96   1     1.0000   15.257734   18.790801   16.408008
97   97   1     1.0000   6.912813   3.811351   2.410528
98   98   1     1.0000   6.912813   3.811351   16.463244
99   99   1     1.0000   6.912813   13.872209   2.410528
100  100  1     1.0000   6.912813   13.872209   16.463244
101  101  1     1.0000   17.828549   3.811351   2.410528
102  102  1     1.0000   17.828549   3.811351   16.463244
103  103  1     1.0000   17.828549   13.872209   2.410528
104  104  1     1.0000   17.828549   13.872209   16.463244
105  105  1     1.0000   6.667801   9.039070   2.492672
106  106  1     1.0000   6.667801   9.039070   16.545389
107  107  1     1.0000   6.667801   19.099927   2.492672
108  108  1     1.0000   6.667801   19.099927   16.545389
109  109  1     1.0000   17.583537   9.039070   2.492672
110  110  1     1.0000   17.583537   9.039070   16.545389
111  111  1     1.0000   17.583537   19.099927   2.492672
112  112  1     1.0000   17.583537   19.099927   16.545389
113  113  1     1.0000   9.551994   3.858105   2.176590
114  114  1     1.0000   9.551994   3.858105   16.229307
115  115  1     1.0000   9.551994   13.918963   2.176590
116  116  1     1.0000   9.551994   13.918963   16.229307
117  117  1     1.0000   20.467730   3.858105   2.176590
118  118  1     1.0000   20.467730   3.858105   16.229307
119  119  1     1.0000   20.467730   13.918963   2.176590
120  120  1     1.0000   20.467730   13.918963   16.229307
121  121  1     1.0000   9.372308   8.529967   2.364600
122  122  1     1.0000   9.372308   8.529967   16.417316
123  123  1     1.0000   9.372308   18.590824   2.364600
124  124  1     1.0000   9.372308   18.590824   16.417316
125  125  1     1.0000   20.288044   8.529967   2.364600
126  126  1     1.0000   20.288044   8.529967   16.417316
127  127  1     1.0000   20.288044   18.590824   2.364600
128  128  1     1.0000   20.288044   18.590824   16.417316
129  129  1     1.0000   1.371471   0.736527   11.919120
130  130  1     1.0000   1.371471   0.736527   25.971836
131  131  1     1.0000   1.371471   10.797385   11.919120
132  132  1     1.0000   1.371471   10.797385   25.971836
133  133  1     1.0000   12.287207   0.736527   11.919120
134  134  1     1.0000   12.287207   0.736527   25.971836
135  135  1     1.0000   12.287207   10.797385   11.919120
136  136  1     1.0000   12.287207   10.797385   25.971836
137  137  1     1.0000   1.141104   5.093607   11.604237
138  138  1     1.0000   1.141104   5.093607   25.656954
139  139  1     1.0000   1.141104   15.154464   11.604237
140  140  1     1.0000   1.141104   15.154464   25.656954
141  141  1     1.0000   12.056840   5.093607   11.604237
142  142  1     1.0000   12.056840   5.093607   25.656954
143  143  1     1.0000   12.056840   15.154464   11.604237
144  144  1     1.0000   12.056840   15.154464   25.656954
145  145  1     1.0000   3.923886   0.331107   11.690633
146  146  1     1.0000   3.923886   0.331107   25.743350
147  147  1     1.0000   3.923886   10.391965   11.690633
148  148  1     1.0000   3.923886   10.391965   25.743350
149  149  1     1.0000   14.839622   0.331107   11.690633
150  150  1     1.0000   14.839622   0.331107   25.743350
151  151  1     1.0000   14.839622   10.391965   11.690633
152  152  1     1.0000   14.839622   10.391965   25.743350
153  153  1     1.0000   3.959150   5.773725   11.515549
154  154  1     1.0000   3.959150   5.773725   25.568266
155  155  1     1.0000   3.959150   15.834583   11.515549
156  156  1     1.0000   3.959150   15.834583   25.568266
157  157  1     1.0000   14.874887   5.773725   11.515549
158  158  1     1.0000   14.874887   5.773725   25.568266
159  159  1     1.0000   14.874887   15.834583   11.515549
160  160  1     1.0000   14.874887   15.834583   25.568266
161  161  1     1.0000   6.945561   0.579392   11.737700
162  162  1     1.0000   6.945561   0.579392   25.790417
163  163  1     1.0000   6.945561   10.640250   11.737700
164  164  1     1.0000   6.945561   10.640250   25.790417
165  165  1     1.0000   17.861298   0.579392   11.737700
166  166  1     1.0000   17.861298   0.579392   25.790417
167  167  1     1.0000   17.861298   10.640250   11.737700
168  168  1     1.0000   17.861298   10.640250   25.790417
169  169  1     1.0000   6.483062   5.670831   11.517249
170  170  1     1.0000   6.483062   5.670831   25.569965
171  171  1     1.0000   6.483062   15.731689   11.517249
172  172  1     1.0000   6.483062   15.731689   25.569965
173  173  1     1.0000   17.398799   5.670831   11.517249
174  174  1     1.0000   17.398799   5.670831   25.569965
175  175  1     1.0000   17.398799   15.731689   11.517249
176  176  1     1.0000   17.398799   15.731689   25.569965
177  177  1     1.0000   9.531871   0.536788   11.742319
178  178  1     1.0000   9.531871   0.536788   25.795036
179  179  1     1.0000   9.531871   10.597646   11.742319
180  180  1     1.0000   9.531871   10.597646   25.795036
181  181  1     1.0000   20.447608   0.536788   11.742319
182  182  1     1.0000   20.447608   0.536788   25.795036
183  183  1     1.0000   20.447608   10.597646   11.742319
184  184  1     1.0000   20.447608   10.597646   25.795036
185  185  1     1.0000   9.465939   5.315370   11.573385
186  186  1     1.0000   9.465939   5.315370   25.626102
187  187  1     1.0000   9.465939   15.376227   11.573385
188  188  1     1.0000   9.465939   15.376227   25.626102
189  189  1     1.0000   20.381676   5.315370   11.573385
190  190  1     1.0000   20.381676   5.315370   25.626102
191  191  1     1.0000   20.381676   15.376227   11.573385
192  192  1     1.0000   20.381676   15.376227   25.626102
193  193  1     1.0000   0.044017   2.889937   11.817841
194  194  1     1.0000   0.044017   2.889937   25.870558
195  195  1     1.0000   0.044017   12.950795   11.817841
196  196  1     1.0000   0.044017   12.950795   25.870558
197  197  1     1.0000   10.959753   2.889937   11.817841
198  198  1     1.0000   10.959753   2.889937   25.870558
199  199  1     1.0000   10.959753   12.950795   11.817841
200  200  1     1.0000   10.959753   12.950795   25.870558
201  201  1     1.0000   10.861743   8.134933   11.687581
202  202  1     1.0000   10.861743   8.134933   25.740298
203  203  1     1.0000   10.861743   18.195791   11.687581
204  204  1     1.0000   10.861743   18.195791   25.740298
205  205  1     1.0000   21.777479   8.134933   11.687581
206  206  1     1.0000   21.777479   8.134933   25.740298
207  207  1     1.0000   21.777479   18.195791   11.687581
208  208  1     1.0000   21.777479   18.195791   25.740298
209  209  1     1.0000   2.892421   3.299397   11.821762
210  210  1     1.0000   2.892421   3.299397   25.874478
211  211  1     1.0000   2.892421   13.360255   11.821762
212  212  1     1.0000   2.892421   13.360255   25.874478
213  213  1     1.0000   13.808157   3.299397   11.821762
214  214  1     1.0000   13.808157   3.299397   25.874478
215  215  1     1.0000   13.808157   13.360255   11.821762
216  216  1     1.0000   13.808157   13.360255   25.874478
217  217  1     1.0000   2.598320   8.281470   11.688549
218  218  1     1.0000   2.598320   8.281470   25.741266
219  219  1     1.0000   2.598320   18.342327   11.688549
220  220  1     1.0000   2.598320   18.342327   25.741266
221  221  1     1.0000   13.514056   8.281470   11.688549
222  222  1     1.0000   13.514056   8.281470   25.741266
223  223  1     1.0000   13.514056   18.342327   11.688549
224  224  1     1.0000   13.514056   18.342327   25.741266
225  225  1     1.0000   5.037508   3.205621   11.545289
226  226  1     1.0000   5.037508   3.205621   25.598006
227  227  1     1.0000   5.037508   13.266479   11.545289
228  228  1     1.0000   5.037508   13.266479   25.598006
229  229  1     1.0000   15.953244   3.205621   11.545289
230  230  1     1.0000   15.953244   3.205621   25.598006
231  231  1     1.0000   15.953244   13.266479   11.545289
232  232  1     1.0000   15.953244   13.266479   25.598006
233  233  1     1.0000   5.674557   7.847577   11.843625
234  234  1     1.0000   5.674557   7.847577   25.896342
235  235  1     1.0000   5.674557   17.908435   11.843625
236  236  1     1.0000   5.674557   17.908435   25.896342
237  237  1     1.0000   16.590293   7.847577   11.843625
238  238  1     1.0000   16.590293   7.847577   25.896342
239  239  1     1.0000   16.590293   17.908435   11.843625
240  240  1     1.0000   16.590293   17.908435   25.896342
241  241  1     1.0000   8.325026   3.135991   11.709727
242  242  1     1.0000   8.325026   3.135991   25.762443
243  243  1     1.0000   8.325026   13.196849   11.709727
244  244  1     1.0000   8.325026   13.196849   25.762443
245  245  1     1.0000   19.240762   3.135991   11.709727
246  246  1     1.0000   19.240762   3.135991   25.762443
247  247  1     1.0000   19.240762   13.196849   11.709727
248  248  1     1.0000   19.240762   13.196849   25.762443
249  249  1     1.0000   8.123942   8.189593   11.468159
250  250  1     1.0000   8.123942   8.189593   25.520876
251  251  1     1.0000   8.123942   18.250450   11.468159
252  252  1     1.0000   8.123942   18.250450   25.520876
253  253  1     1.0000   19.039678   8.189593   11.468159
254  254  1     1.0000   19.039678   8.189593   25.520876
255  255  1     1.0000   19.039678   18.250450   11.468159
256  256  1     1.0000   19.039678   18.250450   25.520876
257  257  1     1.0000   10.840731   4.825071   7.093886
258  258  1     1.0000   10.840731   4.825071   21.146603
259  259  1     1.0000   10.840731   14.885929   7.093886
260  260  1     1.0000   10.840731   14.885929   21.146603
261  261  1     1.0000   21.756467   4.825071   7.093886
262  262  1     1.0000   21.756467   4.825071   21.146603
263  263  1     1.0000   21.756467   14.885929   7.093886
264  264  1     1.0000   21.756467   14.885929   21.146603
265  265  1     1.0000   0.257630   9.588964   7.146237
266  266  1     1.0000   0.257630   9.588964   21.198954
267  267  1     1.0000   0.257630   19.649822   7.146237
268  268  1     1.0000   0.257630   19.649822   21.198954
269  269  1     1.0000   11.173366   9.588964   7.146237
270  270  1     1.0000   11.173366   9.588964   21.198954
271  271  1     1.0000   11.173366   19.649822   7.146237
272  272  1     1.0000   11.173366   19.649822   21.198954
273  273  1     1.0000   2.666004   4.846501   7.062685
274  274  1     1.0000   2.666004   4.846501   21.115401
275  275  1     1.0000   2.666004   14.907359   7.062685
276  276  1     1.0000   2.666004   14.907359   21.115401
277  277  1     1.0000   13.581740   4.846501   7.062685
278  278  1     1.0000   13.581740   4.846501   21.115401
279  279  1     1.0000   13.581740   14.907359   7.062685
280  280  1     1.0000   13.581740   14.907359   21.115401
281  281  1     1.0000   2.838994   9.699024   7.178870
282  282  1     1.0000   2.838994   9.699024   21.231587
283  283  1     1.0000   2.838994   19.759882   7.178870
284  284  1     1.0000   2.838994   19.759882   21.231587
285  285  1     1.0000   13.754731   9.699024   7.178870
286  286  1     1.0000   13.754731   9.699024   21.231587
287  287  1     1.0000   13.754731   19.759882   7.178870
288  288  1     1.0000   13.754731   19.759882   21.231587
289  289  1     1.0000   5.415854   4.876574   6.926322
290  290  1     1.0000   5.415854   4.876574   20.979039
291  291  1     1.0000   5.415854   14.937431   6.926322
292  292  1     1.0000   5.415854   14.937431   20.979039
293  293  1     1.0000   16.331590   4.876574   6.926322
294  294  1     1.0000   16.331590   4.876574   20.979039
295  295  1     1.0000   16.331590   14.937431   6.926322
296  296  1     1.0000   16.331590   14.937431   20.979039
297  297  1     1.0000   5.339028   9.930744   6.964291
298  298  1     1.0000   5.339028   9.930744   21.017007
299  299  1     1.0000   5.339028   19.991602   6.964291
300  300  1     1.0000   5.339028   19.991602   21.017007
301  301  1     1.0000   16.254764   9.930744   6.964291
302  302  1     1.0000   16.254764   9.930744   21.017007
303  303  1     1.0000   16.254764   19.991602   6.964291
304  304  1     1.0000   16.254764   19.991602   21.017007
305  305  1     1.0000   8.297413   4.788810   7.063662
306  306  1     1.0000   8.297413   4.788810   21.116379
307  307  1     1.0000   8.297413   14.849668   7.063662
308  308  1     1.0000   8.297413   14.849668   21.116379
309  309  1     1.0000   19.213150   4.788810   7.063662
310  310  1     1.0000   19.213150   4.788810   21.116379
311  311  1     1.0000   19.213150   14.849668   7.063662
312  312  1     1.0000   19.213150   14.849668   21.116379
313  313  1     1.0000   8.285432   9.954020   6.985681
314  314  1     1.0000   8.285432   9.954020   21.038398
315  315  1     1.0000   8.285432   20.014878   6.985681
316  316  1     1.0000   8.285432   20.014878   21.038398
317  317  1     1.0000   19.201168   9.954020   6.985681
318  318  1     1.0000   19.201168   9.954020   21.038398
319  319  1     1.0000   19.201168   20.014878   6.985681
320  320  1     1.0000   19.201168   20.014878   21.038398
321  321  1     1.0000   1.362140   2.239426   6.943976
322  322  1     1.0000   1.362140   2.239426   20.996693
323  323  1     1.0000   1.362140   12.300283   6.943976
324  324  1     1.0000   1.362140   12.300283   20.996693
325  325  1     1.0000   12.277876   2.239426   6.943976
326  326  1     1.0000   12.277876   2.239426   20.996693
327  327  1     1.0000   12.277876   12.300283   6.943976
328  328  1     1.0000   12.277876   12.300283   20.996693
329  329  1     1.0000   1.338979   7.291826   7.117103
330  330  1     1.0000   1.338979   7.291826   21.169820
331  331  1     1.0000   1.338979   17.352684   7.117103
332  332  1     1.0000   1.338979   17.352684   21.169820
333  333  1     1.0000   12.254715   7.291826   7.117103
334  334  1     1.0000   12.254715   7.291826   21.169820
335  335  1     1.0000   12.254715   17.352684   7.117103
336  336  1     1.0000   12.254715   17.352684   21.169820
337  337  1     1.0000   3.968430   2.291104   7.021029
338  338  1     1.0000   3.968430   2.291104   21.073746
339  339  1     1.0000   3.968430   12.351962   7.021029
340  340  1     1.0000   3.968430   12.351962   21.073746
341  341  1     1.0000   14.884166   2.291104   7.021029
342  342  1     1.0000   14.884166   2.291104   21.073746
343  343  1     1.0000   14.884166   12.351962   7.021029
344  344  1     1.0000   14.884166   12.351962   21.073746
345  345  1     1.0000   3.931727   7.341972   7.051476
346  346  1     1.0000   3.931727   7.341972   21.104193
347  347  1     1.0000   3.931727   17.402830   7.051476
348  348  1     1.0000   3.931727   17.402830   21.104193
349  349  1     1.0000   14.847463   7.341972   7.051476
350  350  1     1.0000   14.847463   7.341972   21.104193
351  351  1     1.0000   14.847463   17.402830   7.051476
352  352  1     1.0000   14.847463   17.402830   21.104193
353  353  1     1.0000   6.556860   2.257323   7.041407
354  354  1     1.0000   6.556860   2.257323   21.094123
355  355  1     1.0000   6.556860   12.318181   7.041407
356  356  1     1.0000   6.556860   12.318181   21.094123
357  357  1     1.0000   17.472596   2.257323   7.041407
358  358  1     1.0000   17.472596   2.257323   21.094123
359  359  1     1.0000   17.472596   12.318181   7.041407
360  360  1     1.0000   17.472596   12.318181   21.094123
361  361  1     1.0000   6.611701   7.313480   7.176681
362  362  1     1.0000   6.611701   7.313480   21.229398
363  363  1     1.0000   6.611701   17.374338   7.176681
364  364  1     1.0000   6.611701   17.374338   21.229398
365  365  1     1.0000   17.527437   7.313480   7.176681
366  366  1     1.0000   17.527437   7.313480   21.229398
367  367  1     1.0000   17.527437   17.374338   7.176681
368  368  1     1.0000   17.527437   17.374338   21.229398
369  369  1     1.0000   9.558053   2.265884   7.094901
370  370  1     1.0000   9.558053   2.265884   21.147618
371  371  1     1.0000   9.558053   12.326742   7.094901
372  372  1     1.0000   9.558053   12.326742   21.147618
373  373  1     1.0000   20.473789   2.265884   7.094901
374  374  1     1.0000   20.473789   2.265884   21.147618
375  375  1     1.0000   20.473789   12.326742   7.094901
376  376  1     1.0000   20.473789   12.326742   21.147618
377  377  1     1.0000   9.552106   7.337831   6.811538
378  378  1     1.0000   9.552106   7.337831   20.864254
379  379  1     1.0000   9.552106   17.398689   6.811538
380  380  1     1.0000   9.552106   17.398689   20.864254
381  381  1     1.0000   20.467843   7.337831   6.811538
382  382  1     1.0000   20.467843   7.337831   20.864254
383  383  1     1.0000   20.467843   17.398689   6.811538
384  384  1     1.0000   20.467843   17.398689   20.864254
385  385  2     3.0000   0.007358   4.654021   0.027495
386  386  2     3.0000   0.007358   4.654021   14.080212
387  387  2     3.0000   0.007358   14.714879   0.027495
388  388  2     3.0000   0.007358   14.714879   14.080212
389  389  2     3.0000   10.923094   4.654021   0.027495
390  390  2     3.0000   10.923094   4.654021   14.080212
391  391  2     3.0000   10.923094   14.714879   0.027495
392  392  2     3.0000   10.923094   14.714879   14.080212
393  393  2     3.0000   10.778238   9.629378   0.111191
394  394  2     3.0000   10.778238   9.629378   14.163908
395  395  2     3.0000   10.778238   19.690236   0.111191
396  396  2     3.0000   10.778238   19.690236   14.163908
397  397  2     3.0000   21.693974   9.629378   0.111191
398  398  2     3.0000   21.693974   9.629378   14.163908
399  399  2     3.0000   21.693974   19.690236   0.111191
400  400  2     3.0000   21.693974   19.690236   14.163908
401  401  2     3.0000   2.814276   4.704930   0.026872
402  402  2     3.0000   2.814276   4.704930   14.079589
403  403  2     3.0000   2.814276   14.765788   0.026872
404  404  2     3.0000   2.814276   14.765788   14.079589
405  405  2     3.0000   13.730012   4.704930   0.026872
406  406  2     3.0000   13.730012   4.704930   14.079589
407  407  2     3.0000   13.730012   14.765788   0.026872
408  408  2     3.0000   13.730012   14.765788   14.079589
409  409  2     3.0000   2.794037   9.717479   0.009919
410  410  2     3.0000   2.794037   9.717479   14.062636
411  411  2     3.0000   2.794037   19.778337   0.009919
412  412  2     3.0000   2.794037   19.778337   14.062636
413  413  2     3.0000   13.709773   9.717479   0.009919
414  414  2     3.0000   13.709773   9.717479   14.062636
415  415  2     3.0000   13.709773   19.778337   0.009919
416  416  2     3.0000   13.709773   19.778337   14.062636
417  417  2     3.0000   5.588698   4.611619   14.046174
418  418  2     3.0000   5.588698   4.611619   28.098891
419  419  2     3.0000   5.588698   14.672477   14.046174
420  420  2     3.0000   5.588698   14.672477   28.098891
421  421  2     3.0000   16.504434   4.611619   14.046174
422  422  2     3.0000   16.504434   4.611619   28.098891
423  423  2     3.0000   16.504434   14.672477   14.046174
424  424  2     3.0000   16.504434   14.672477   28.098891
425  425  2     3.0000   5.554524   9.742403   13.949165
426  426  2     3.0000   5.554524   9.742403   28.001882
427  427  2     3.0000   5.554524   19.803260   13.949165
428  428  2     3.0000   5.554524   19.803260   28.001882
429  429  2     3.0000   16.470260   9.742403   13.949165
430  430  2     3.0000   16.470260   9.742403   28.001882
431  431  2     3.0000   16.470260   19.803260   13.949165
432  432  2     3.0000   16.470260   19.803260   28.001882
433  433  2     3.0000   8.205695   4.596435   14.024443
434  434  2     3.0000   8.205695   4.596435   28.077160
435  435  2     3.0000   8.205695   14.657293   14.024443
436  436  2     3.0000   8.205695   14.657293   28.077160
437  437  2     3.0000   19.121431   4.596435   14.024443
438  438  2     3.0000   19.121431   4.596435   28.077160
439  439  2     3.0000   19.121431   14.657293   14.024443
440  440  2     3.0000   19.121431   14.657293   28.077160
441  441  2     3.0000   8.130388   9.759591   0.042932
442  442  2     3.0000   8.130388   9.759591   14.095649
443  443  2     3.0000   8.130388   19.820449   0.042932
444  444  2     3.0000   8.130388   19.820449   14.095649
445  445  2     3.0000   19.046124   9.759591   0.042932
446  446  2     3.0000   19.046124   9.759591   14.095649
447  447  2     3.0000   19.046124   19.820449   0.042932
448  448  2     3.0000   19.046124   19.820449   14.095649
449  449  2     3.0000   1.584879   2.210473   14.052106
450  450  2     3.0000   1.584879   2.210473   28.104823
451  451  2     3.0000   1.584879   12.271330   14.052106
452  452  2     3.0000   1.584879   12.271330   28.104823
453  453  2     3.0000   12.500616   2.210473   14.052106
454  454  2     3.0000   12.500616   2.210473   28.104823
455  455  2     3.0000   12.500616   12.271330   14.052106
456  456  2     3.0000   12.500616   12.271330   28.104823
457  457  2     3.0000   1.536760   7.138897   13.909141
458  458  2     3.0000   1.536760   7.138897   27.961857
459  459  2     3.0000   1.536760   17.199755   13.909141
460  460  2     3.0000   1.536760   17.199755   27.961857
461  461  2     3.0000   12.452496   7.138897   13.909141
462  462  2     3.0000   12.452496   7.138897   27.961857
463  463  2     3.0000   12.452496   17.199755   13.909141
464  464  2     3.0000   12.452496   17.199755   27.961857
465  465  2     3.0000   4.234421   2.093155   14.024742
466  466  2     3.0000   4.234421   2.093155   28.077458
467  467  2     3.0000   4.234421   12.154013   14.024742
468  468  2     3.0000   4.234421   12.154013   28.077458
469  469  2     3.0000   15.150157   2.093155   14.024742
470  470  2     3.0000   15.150157   2.093155   28.077458
471  471  2     3.0000   15.150157   12.154013   14.024742
472  472  2     3.0000   15.150157   12.154013   28.077458
473  473  2     3.0000   4.101297   7.124171   0.072919
474  474  2     3.0000   4.101297   7.124171   14.125636
475  475  2     3.0000   4.101297   17.185028   0.072919
476  476  2     3.0000   4.101297   17.185028   14.125636
477  477  2     3.0000   15.017033   7.124171   0.072919
478  478  2     3.0000   15.017033   7.124171   14.125636
479  479  2     3.0000   15.017033   17.185028   0.072919
480  480  2     3.0000   15.017033   17.185028   14.125636
481  481  2     3.0000   6.849417   2.211726   13.979777
482  482  2     3.0000   6.849417   2.211726   28.032494
483  483  2     3.0000   6.849417   12.272583   13.979777
484  484  2     3.0000   6.849417   12.272583   28.032494
485  485  2     3.0000   17.765153   2.211726   13.979777
486  486  2     3.0000   17.765153   2.211726   28.032494
487  487  2     3.0000   17.765153   12.272583   13.979777
488  488  2     3.0000   17.765153   12.272583   28.032494
489  489  2     3.0000   6.941344   6.993171   14.006738
490  490  2     3.0000   6.941344   6.993171   28.059455
491  491  2     3.0000   6.941344   17.054028   14.006738
492  492  2     3.0000   6.941344   17.054028   28.059455
493  493  2     3.0000   17.857080   6.993171   14.006738
494  494  2     3.0000   17.857080   6.993171   28.059455
495  495  2     3.0000   17.857080   17.054028   14.006738
496  496  2     3.0000   17.857080   17.054028   28.059455
497  497  2     3.0000   9.570350   2.244696   14.021486
498  498  2     3.0000   9.570350   2.244696   28.074202
499  499  2     3.0000   9.570350   12.305554   14.021486
500  500  2     3.0000   9.570350   12.305554   28.074202
501  501  2     3.0000   20.486086   2.244696   14.021486
502  502  2     3.0000   20.486086   2.244696   28.074202
503  503  2     3.0000   20.486086   12.305554   14.021486
504  504  2     3.0000   20.486086   12.305554   28.074202
505  505  2     3.0000   9.527638   6.936012   0.086984
506  506  2     3.0000   9.527638   6.936012   14.139701
507  507  2     3.0000   9.527638   16.996869   0.086984
508  508  2     3.0000   9.527638   16.996869   14.139701
509  509  2     3.0000   20.443374   6.936012   0.086984
510  510  2     3.0000   20.443374   6.936012   14.139701
511  511  2     3.0000   20.443374   16.996869   0.086984
512  512  2     3.0000   20.443374   16.996869   14.139701
513  513  2     3.0000   1.417143   0.481870   4.407126
514  514  2     3.0000   1.417143   0.481870   18.459843
515  515  2     3.0000   1.417143   10.542728   4.407126
516  516  2     3.0000   1.417143   10.542728   18.459843