Li3 Ni3 O6

288   atoms
96   bonds

4   atom types
1   bond types

0.0 11.233915 xlo xhi
0.0 10.652168 ylo yhi
0.0 14.016241 zlo zhi

Masses

1   6.94100 # Li 
2  58.69340 # Ni 
3  14.39946 # O core
4   1.59994 # O shell

Atoms

  1    1    1    1.000   0.554591   1.538786   2.371598
  2    2    1    1.000  -0.029588   4.136935   2.383674
  3    3    1    1.000  -0.613768   6.735085   2.395751
  4    4    1    1.000  -1.197947   9.333235   2.407827
  5    5    1    1.000   3.286526   0.892951   2.455131
  6    6    1    1.000   2.702347   3.491101   2.467207
  7    7    1    1.000   2.118168   6.089251   2.479284
  8    8    1    1.000   1.533989   8.687400   2.491360
  9    9    1    1.000   6.018462   0.247117   2.538664
 10   10    1    1.000   5.434283   2.845267   2.550740
 11   11    1    1.000   4.850104   5.443416   2.562817
 12   12    1    1.000   4.265925   8.041566   2.574893
 13   13    1    1.000   8.750398  -0.398717   2.622197
 14   14    1    1.000   8.166219   2.199432   2.634273
 15   15    1    1.000   7.582040   4.797582   2.646350
 16   16    1    1.000   6.997861   7.395732   2.658426
 17   17    1    1.000   0.100198   0.065889   7.007094
 18   18    1    1.000  -0.483982   2.664038   7.019171
 19   19    1    1.000  -1.068161   5.262188   7.031247
 20   20    1    1.000  -1.652340   7.860338   7.043323
 21   21    1    1.000   2.832133  -0.579946   7.090627
 22   22    1    1.000   2.247954   2.018204   7.102704
 23   23    1    1.000   1.663775   4.616354   7.114780
 24   24    1    1.000   1.079596   7.214504   7.126856
 25   25    1    1.000   5.564069  -1.225780   7.174160
 26   26    1    1.000   4.979890   1.372370   7.186237
 27   27    1    1.000   4.395711   3.970519   7.198313
 28   28    1    1.000   3.811532   6.568669   7.210389
 29   29    1    1.000   8.296005  -1.871614   7.257693
 30   30    1    1.000   7.711826   0.726535   7.269770
 31   31    1    1.000   7.127647   3.324685   7.281846
 32   32    1    1.000   6.543468   5.922835   7.293922
 33   33    1    1.000   1.793561   0.545307   11.738214
 34   34    1    1.000   1.209382   3.143457   11.750290
 35   35    1    1.000   0.625203   5.741607   11.762367
 36   36    1    1.000   0.041024   8.339756   11.774443
 37   37    1    1.000   4.525497  -0.100527   11.821747
 38   38    1    1.000   3.941318   2.497623   11.833823
 39   39    1    1.000   3.357139   5.095772   11.845900
 40   40    1    1.000   2.772960   7.693922   11.857976
 41   41    1    1.000   7.257433  -0.746361   11.905280
 42   42    1    1.000   6.673254   1.851788   11.917356
 43   43    1    1.000   6.089075   4.449938   11.929433
 44   44    1    1.000   5.504896   7.048088   11.941509
 45   45    1    1.000   9.989369  -1.392196   11.988813
 46   46    1    1.000   9.405189   1.205954   12.000889
 47   47    1    1.000   8.821010   3.804104   12.012966
 48   48    1    1.000   8.236831   6.402253   12.025042
 49   49    2    3.000   0.000000   0.000000   0.000000
 50   50    2    3.000  -0.584179   2.598150   0.012076
 51   51    2    3.000  -1.168358   5.196299   0.024153
 52   52    2    3.000  -1.752537   7.794449   0.036229
 53   53    2    3.000   2.731936  -0.645834   0.083533
 54   54    2    3.000   2.147757   1.952315   0.095609
 55   55    2    3.000   1.563578   4.550465   0.107686
 56   56    2    3.000   0.979398   7.148615   0.119762
 57   57    2    3.000   5.463871  -1.291669   0.167066
 58   58    2    3.000   4.879692   1.306481   0.179142
 59   59    2    3.000   4.295513   3.904631   0.191219
 60   60    2    3.000   3.711334   6.502780   0.203295
 61   61    2    3.000   8.195807  -1.937503   0.250599
 62   62    2    3.000   7.611628   0.660647   0.262675
 63   63    2    3.000   7.027449   3.258796   0.274752
 64   64    2    3.000   6.443270   5.856946   0.286828
 65   65    2    3.000   1.693364   0.479418   4.731105
 66   66    2    3.000   1.109184   3.077568   4.743182
 67   67    2    3.000   0.525005   5.675718   4.755258
 68   68    2    3.000  -0.059174   8.273867   4.767334
 69   69    2    3.000   4.425299  -0.166416   4.814638
 70   70    2    3.000   3.841120   2.431734   4.826715
 71   71    2    3.000   3.256941   5.029883   4.838791
 72   72    2    3.000   2.672762   7.628033   4.850867
 73   73    2    3.000   7.157235  -0.812250   4.898171
 74   74    2    3.000   6.573056   1.785899   4.910248
 75   75    2    3.000   5.988877   4.384049   4.922324
 76   76    2    3.000   5.404698   6.982199   4.934400
 77   77    2    3.000   9.889171  -1.458085   4.981704
 78   78    2    3.000   9.304992   1.140065   4.993781
 79   79    2    3.000   8.720813   3.738215   5.005857
 80   80    2    3.000   8.136634   6.336364   5.017933
 81   81    2    3.000   0.654788   1.604674   9.378692
 82   82    2    3.000   0.070609   4.202824   9.390768
 83   83    2    3.000  -0.513570   6.800974   9.402844
 84   84    2    3.000  -1.097749   9.399124   9.414921
 85   85    2    3.000   3.386724   0.958840   9.462225
 86   86    2    3.000   2.802545   3.556990   9.474301
 87   87    2    3.000   2.218366   6.155140   9.486377
 88   88    2    3.000   1.634187   8.753289   9.498453
 89   89    2    3.000   6.118660   0.313006   9.545758
 90   90    2    3.000   5.534481   2.911155   9.557834
 91   91    2    3.000   4.950302   5.509305   9.569910
 92   92    2    3.000   4.366122   8.107455   9.581986
 93   93    2    3.000   8.850595  -0.332829   9.629290
 94   94    2    3.000   8.266416   2.265321   9.641367
 95   95    2    3.000   7.682237   4.863471   9.653443
 96   96    2    3.000   7.098058   7.461621   9.665519
 97   97    3    0.960  -0.007247   0.009488   3.626626
 98   97    4   -2.960  -0.007247   0.009488   3.626626
 99   98    3    0.960  -0.591426   2.607638   3.638702
100   98    4   -2.960  -0.591426   2.607638   3.638702
101   99    3    0.960  -1.175606   5.205788   3.650778
102   99    4   -2.960  -1.175606   5.205788   3.650778
103  100    3    0.960  -1.759785   7.803938   3.662855
104  100    4   -2.960  -1.759785   7.803938   3.662855
105  101    3    0.960   2.724688  -0.636346   3.710159
106  101    4   -2.960   2.724688  -0.636346   3.710159
107  102    3    0.960   2.140509   1.961804   3.722235
108  102    4   -2.960   2.140509   1.961804   3.722235
109  103    3    0.960   1.556330   4.559953   3.734311
110  103    4   -2.960   1.556330   4.559953   3.734311
111  104    3    0.960   0.972151   7.158103   3.746388
112  104    4   -2.960   0.972151   7.158103   3.746388
113  105    3    0.960   5.456624  -1.282180   3.793692
114  105    4   -2.960   5.456624  -1.282180   3.793692
115  106    3    0.960   4.872445   1.315969   3.805768
116  106    4   -2.960   4.872445   1.315969   3.805768
117  107    3    0.960   4.288266   3.914119   3.817844
118  107    4   -2.960   4.288266   3.914119   3.817844
119  108    3    0.960   3.704087   6.512269   3.829921
120  108    4   -2.960   3.704087   6.512269   3.829921
121  109    3    0.960   8.188560  -1.928015   3.877225
122  109    4   -2.960   8.188560  -1.928015   3.877225
123  110    3    0.960   7.604381   0.670135   3.889301
124  110    4   -2.960   7.604381   0.670135   3.889301
125  111    3    0.960   7.020202   3.268285   3.901377
126  111    4   -2.960   7.020202   3.268285   3.901377
127  112    3    0.960   6.436023   5.866434   3.913454
128  112    4   -2.960   6.436023   5.866434   3.913454
129  113    3    0.960   1.700611   0.469930   1.104480
130  113    4   -2.960   1.700611   0.469930   1.104480
131  114    3    0.960   1.116432   3.068080   1.116556
132  114    4   -2.960   1.116432   3.068080   1.116556
133  115    3    0.960   0.532253   5.666229   1.128632
134  115    4   -2.960   0.532253   5.666229   1.128632
135  116    3    0.960  -0.051926   8.264379   1.140708
136  116    4   -2.960  -0.051926   8.264379   1.140708
137  117    3    0.960   4.432547  -0.175904   1.188013
138  117    4   -2.960   4.432547  -0.175904   1.188013
139  118    3    0.960   3.848368   2.422245   1.200089
140  118    4   -2.960   3.848368   2.422245   1.200089
141  119    3    0.960   3.264189   5.020395   1.212165
142  119    4   -2.960   3.264189   5.020395   1.212165
143  120    3    0.960   2.680009   7.618545   1.224241
144  120    4   -2.960   2.680009   7.618545   1.224241
145  121    3    0.960   7.164482  -0.821739   1.271545
146  121    4   -2.960   7.164482  -0.821739   1.271545
147  122    3    0.960   6.580303   1.776411   1.283622
148  122    4   -2.960   6.580303   1.776411   1.283622
149  123    3    0.960   5.996124   4.374561   1.295698
150  123    4   -2.960   5.996124   4.374561   1.295698
151  124    3    0.960   5.411945   6.972710   1.307774
152  124    4   -2.960   5.411945   6.972710   1.307774
153  125    3    0.960   9.896418  -1.467573   1.355078
154  125    4   -2.960   9.896418  -1.467573   1.355078
155  126    3    0.960   9.312239   1.130577   1.367155
156  126    4   -2.960   9.312239   1.130577   1.367155
157  127    3    0.960   8.728060   3.728726   1.379231
158  127    4   -2.960   8.728060   3.728726   1.379231
159  128    3    0.960   8.143881   6.326876   1.391307
160  128    4   -2.960   8.143881   6.326876   1.391307
161  129    3    0.960   1.686116   0.488907   8.357731
162  129    4   -2.960   1.686116   0.488907   8.357731
163  130    3    0.960   1.101937   3.087057   8.369808
164  130    4   -2.960   1.101937   3.087057   8.369808
165  131    3    0.960   0.517758   5.685206   8.381884
166  131    4   -2.960   0.517758   5.685206   8.381884
167  132    3    0.960  -0.066421   8.283356   8.393960
168  132    4   -2.960  -0.066421   8.283356   8.393960
169  133    3    0.960   4.418052  -0.156928   8.441264
170  133    4   -2.960   4.418052  -0.156928   8.441264
171  134    3    0.960   3.833873   2.441222   8.453341
172  134    4   -2.960   3.833873   2.441222   8.453341
173  135    3    0.960   3.249694   5.039372   8.465417
174  135    4   -2.960   3.249694   5.039372   8.465417
175  136    3    0.960   2.665515   7.637522   8.477493
176  136    4   -2.960   2.665515   7.637522   8.477493
177  137    3    0.960   7.149988  -0.802762   8.524797
178  137    4   -2.960   7.149988  -0.802762   8.524797
179  138    3    0.960   6.565809   1.795388   8.536874
180  138    4   -2.960   6.565809   1.795388   8.536874
181  139    3    0.960   5.981629   4.393538   8.548950
182  139    4   -2.960   5.981629   4.393538   8.548950
183  140    3    0.960   5.397450   6.991687   8.561026
184  140    4   -2.960   5.397450   6.991687   8.561026
185  141    3    0.960   9.881923  -1.448596   8.608330
186  141    4   -2.960   9.881923  -1.448596   8.608330
187  142    3    0.960   9.297744   1.149553   8.620407
188  142    4   -2.960   9.297744   1.149553   8.620407
189  143    3    0.960   8.713565   3.747703   8.632483
190  143    4   -2.960   8.713565   3.747703   8.632483
191  144    3    0.960   8.129386   6.345853   8.644559
192  144    4   -2.960   8.129386   6.345853   8.644559
193  145    3    0.960   0.662036   1.595186   5.752066
194  145    4   -2.960   0.662036   1.595186   5.752066
195  146    3    0.960   0.077857   4.193336   5.764142
196  146    4   -2.960   0.077857   4.193336   5.764142
197  147    3    0.960  -0.506323   6.791485   5.776219
198  147    4   -2.960  -0.506323   6.791485   5.776219
199  148    3    0.960  -1.090502   9.389635   5.788295
200  148    4   -2.960  -1.090502   9.389635   5.788295
201  149    3    0.960   3.393971   0.949352   5.835599
202  149    4   -2.960   3.393971   0.949352   5.835599
203  150    3    0.960   2.809792   3.547501   5.847675
204  150    4   -2.960   2.809792   3.547501   5.847675
205  151    3    0.960   2.225613   6.145651   5.859752
206  151    4   -2.960   2.225613   6.145651   5.859752
207  152    3    0.960   1.641434   8.743801   5.871828
208  152    4   -2.960   1.641434   8.743801   5.871828
209  153    3    0.960   6.125907   0.303517   5.919132
210  153    4   -2.960   6.125907   0.303517   5.919132
211  154    3    0.960   5.541728   2.901667   5.931208
212  154    4   -2.960   5.541728   2.901667   5.931208
213  155    3    0.960   4.957549   5.499817   5.943285
214  155    4   -2.960   4.957549   5.499817   5.943285
215  156    3    0.960   4.373370   8.097966   5.955361
216  156    4   -2.960   4.373370   8.097966   5.955361
217  157    3    0.960   8.857843  -0.342317   6.002665
218  157    4   -2.960   8.857843  -0.342317   6.002665
219  158    3    0.960   8.273664   2.255833   6.014741
220  158    4   -2.960   8.273664   2.255833   6.014741
221  159    3    0.960   7.689485   4.853982   6.026818
222  159    4   -2.960   7.689485   4.853982   6.026818
223  160    3    0.960   7.105306   7.452132   6.038894
224  160    4   -2.960   7.105306   7.452132   6.038894
225  161    3    0.960   0.647541   1.614163   13.005319
226  161    4   -2.960   0.647541   1.614163   13.005319
227  162    3    0.960   0.063362   4.212313   13.017395
228  162    4   -2.960   0.063362   4.212313   13.017395
229  163    3    0.960  -0.520817   6.810462   13.029471
230  163    4   -2.960  -0.520817   6.810462   13.029471
231  164    3    0.960  -1.104996   9.408612   13.041547
232  164    4   -2.960  -1.104996   9.408612   13.041547
233  165    3    0.960   3.379477   0.968329   13.088852
234  165    4   -2.960   3.379477   0.968329   13.088852
235  166    3    0.960   2.795297   3.566478   13.100928
236  166    4   -2.960   2.795297   3.566478   13.100928
237  167    3    0.960   2.211118   6.164628   13.113004
238  167    4   -2.960   2.211118   6.164628   13.113004
239  168    3    0.960   1.626939   8.762778   13.125080
240  168    4   -2.960   1.626939   8.762778   13.125080
241  169    3    0.960   6.111412   0.322494   13.172384
242  169    4   -2.960   6.111412   0.322494   13.172384
243  170    3    0.960   5.527233   2.920644   13.184461
244  170    4   -2.960   5.527233   2.920644   13.184461
245  171    3    0.960   4.943054   5.518794   13.196537
246  171    4   -2.960   4.943054   5.518794   13.196537
247  172    3    0.960   4.358875   8.116943   13.208613
248  172    4   -2.960   4.358875   8.116943   13.208613
249  173    3    0.960   8.843348  -0.323340   13.255917
250  173    4   -2.960   8.843348  -0.323340   13.255917
251  174    3    0.960   8.259169   2.274810   13.267994
252  174    4   -2.960   8.259169   2.274810   13.267994
253  175    3    0.960   7.674990   4.872959   13.280070
254  175    4   -2.960   7.674990   4.872959   13.280070
255  176    3    0.960   7.090811   7.471109   13.292146
256  176    4   -2.960   7.090811   7.471109   13.292146
257  177    3    0.960   0.207643   0.122289   10.387563
258  177    4   -2.960   0.207643   0.122289   10.387563
259  178    3    0.960  -0.376537   2.720439   10.399639
260  178    4   -2.960  -0.376537   2.720439   10.399639
261  179    3    0.960  -0.960716   5.318589   10.411715
262  179    4   -2.960  -0.960716   5.318589   10.411715
263  180    3    0.960  -1.544895   7.916738   10.423792
264  180    4   -2.960  -1.544895   7.916738   10.423792
265  181    3    0.960   2.939578  -0.523545   10.471096
266  181    4   -2.960   2.939578  -0.523545   10.471096
267  182    3    0.960   2.355399   2.074604   10.483172
268  182    4   -2.960   2.355399   2.074604   10.483172
269  183    3    0.960   1.771220   4.672754   10.495248
270  183    4   -2.960   1.771220   4.672754   10.495248
271  184    3    0.960   1.187041   7.270904   10.507324
272  184    4   -2.960   1.187041   7.270904   10.507324
273  185    3    0.960   5.671514  -1.169380   10.554629
274  185    4   -2.960   5.671514  -1.169380   10.554629
275  186    3    0.960   5.087335   1.428770   10.566705
276  186    4   -2.960   5.087335   1.428770   10.566705
277  187    3    0.960   4.503156   4.026920   10.578781
278  187    4   -2.960   4.503156   4.026920   10.578781
279  188    3    0.960   3.918977   6.625070   10.590857
280  188    4   -2.960   3.918977   6.625070   10.590857
281  189    3    0.960   8.403450  -1.815214   10.638161
282  189    4   -2.960   8.403450  -1.815214   10.638161
283  190    3    0.960   7.819271   0.782936   10.650238
284  190    4   -2.960   7.819271   0.782936   10.650238
285  191    3    0.960   7.235092   3.381085   10.662314
286  191    4   -2.960   7.235092   3.381085   10.662314
287  192    3    0.960   6.650913   5.979235   10.674390
288  192    4   -2.960   6.650913   5.979235   10.674390

Bonds

   1    1   97   98
   2    1   99  100
   3    1  101  102
   4    1  103  104
   5    1  105  106
   6    1  107  108
   7    1  109  110
   8    1  111  112
   9    1  113  114
  10    1  115  116
  11    1  117  118
  12    1  119  120
  13    1  121  122
  14    1  123  124
  15    1  125  126
  16    1  127  128
  17    1  129  130
  18    1  131  132
  19    1  133  134
  20    1  135  136
  21    1  137  138
  22    1  139  140
  23    1  141  142
  24    1  143  144
  25    1  145  146
  26    1  147  148
  27    1  149  150
  28    1  151  152
  29    1  153  154
  30    1  155  156
  31    1  157  158
  32    1  159  160
  33    1  161  162
  34    1  163  164
  35    1  165  166
  36    1  167  168
  37    1  169  170
  38    1  171  172
  39    1  173  174
  40    1  175  176
  41    1  177  178
  42    1  179  180
  43    1  181  182
  44    1  183  184
  45    1  185  186
  46    1  187  188
  47    1  189  190
  48    1  191  192
  49    1  193  194
  50    1  195  196
  51    1  197  198
  52    1  199  200
  53    1  201  202
  54    1  203  204
  55    1  205  206
  56    1  207  208
  57    1  209  210
  58    1  211  212
  59    1  213  214
  60    1  215  216
  61    1  217  218
  62    1  219  220
  63    1  221  222
  64    1  223  224
  65    1  225  226
  66    1  227  228
  67    1  229  230
  68    1  231  232
  69    1  233  234
  70    1  235  236
  71    1  237  238
  72    1  239  240
  73    1  241  242
  74    1  243  244
  75    1  245  246
  76    1  247  248
  77    1  249  250
  78    1  251  252
  79    1  253  254
  80    1  255  256
  81    1  257  258
  82    1  259  260
  83    1  261  262
  84    1  263  264
  85    1  265  266
  86    1  267  268
  87    1  269  270
  88    1  271  272
  89    1  273  274
  90    1  275  276
  91    1  277  278
  92    1  279  280
  93    1  281  282
  94    1  283  284
  95    1  285  286
  96    1  287  288

