title

288   atoms
96   bonds

4   atom types
1   bond types


0.0 10.915736 xlo xhi
0.0 10.060858 ylo yhi
0.0 14.052717 zlo zhi

0.00000 0.00000 0.00000 xy xz yz 

Masses

1   6.94100 # Li
2  58.69340 # Ni
3  14.39910 # O core
4   1.59990 # O shell

Atoms

1    1    1     1.0000   2.674648   1.656972   2.579269
2    2    1     1.0000   2.779978   6.740582   2.393802
3    3    1     1.0000   5.636790   1.330490   2.469154
4    4    1     1.0000   5.391722   6.252218   2.139614
5    5    1     1.0000   8.332958   1.334848   2.272688
6    6    1     1.0000   8.424081   6.156307   2.241868
7    7    1     1.0000   0.132897   1.601985   2.276290
8    8    1     1.0000   10.855308   6.356326   2.042794
9    9    1     1.0000   1.254503   4.134208   2.126508
10   10   1     1.0000   1.372150   8.807490   2.196093
11   11   1     1.0000   4.148117   3.879985   2.557715
12   12   1     1.0000   4.358350   9.253501   2.114435
13   13   1     1.0000   6.771694   4.036094   2.386210
14   14   1     1.0000   6.897897   8.958523   2.252673
15   15   1     1.0000   9.530116   3.731161   2.397334
16   16   1     1.0000   9.833606   9.089005   2.262304
17   17   1     1.0000   1.404461   0.667438   11.647277
18   18   1     1.0000   1.207745   5.519659   11.601140
19   19   1     1.0000   3.997933   0.602418   11.719255
20   20   1     1.0000   4.080729   5.270584   11.963930
21   21   1     1.0000   6.906287   0.554839   11.727790
22   22   1     1.0000   6.649306   5.307852   11.843560
23   23   1     1.0000   9.800776   0.460046   11.649770
24   24   1     1.0000   9.338724   5.760932   11.801185
25   25   1     1.0000   10.896873   3.135359   11.692364
26   26   1     1.0000   0.203118   8.480017   11.590736
27   27   1     1.0000   2.544869   3.092781   11.866552
28   28   1     1.0000   2.961613   7.868856   11.663041
29   29   1     1.0000   5.543502   3.109949   11.903178
30   30   1     1.0000   5.623475   7.994413   11.594830
31   31   1     1.0000   8.351522   2.796841   11.766677
32   32   1     1.0000   8.241392   8.183809   11.715276
33   33   1     1.0000   0.030232   4.648596   6.867167
34   34   1     1.0000   10.881042   9.406701   6.811134
35   35   1     1.0000   2.575124   4.859631   7.413886
36   36   1     1.0000   2.862313   10.035959   6.808025
37   37   1     1.0000   5.469260   4.731761   7.021599
38   38   1     1.0000   5.408827   9.753318   6.960414
39   39   1     1.0000   8.278526   4.359305   6.942739
40   40   1     1.0000   7.949132   9.604982   6.996139
41   41   1     1.0000   1.216268   2.156478   6.972120
42   42   1     1.0000   1.767875   7.471803   6.884416
43   43   1     1.0000   4.096928   2.455254   7.143000
44   44   1     1.0000   4.296827   7.051930   7.004116
45   45   1     1.0000   6.614101   2.164453   7.012797
46   46   1     1.0000   6.484366   7.370416   6.988906
47   47   1     1.0000   9.508906   1.783870   6.868315
48   48   1     1.0000   9.669607   7.053250   6.921168
49   49   2     3.0000   10.881620   4.785640   0.038280
50   50   2     3.0000   10.896608   9.667516   0.045712
51   51   2     3.0000   2.834152   4.698154   13.976032
52   52   2     3.0000   2.752307   9.955504   0.233561
53   53   2     3.0000   5.446282   4.453507   0.146433
54   54   2     3.0000   5.340526   9.914741   13.964623
55   55   2     3.0000   8.160460   4.732731   0.041158
56   56   2     3.0000   8.299705   9.774551   0.043411
57   57   2     3.0000   1.329932   2.277046   0.104214
58   58   2     3.0000   1.333225   7.245922   14.010245
59   59   2     3.0000   3.956824   2.394915   0.073506
60   60   2     3.0000   3.950797   7.079190   0.067693
61   61   2     3.0000   6.737514   2.096333   0.282558
62   62   2     3.0000   6.661904   7.447303   13.906190
63   63   2     3.0000   9.562163   2.311608   13.916556
64   64   2     3.0000   9.415021   7.335173   13.956339
65   65   2     3.0000   1.433360   0.630718   4.736088
66   66   2     3.0000   1.469274   5.517976   4.713098
67   67   2     3.0000   4.209501   0.624852   4.567897
68   68   2     3.0000   4.217844   5.350834   4.641519
69   69   2     3.0000   6.940380   0.621673   4.575986
70   70   2     3.0000   6.907054   5.589917   4.699182
71   71   2     3.0000   9.697998   0.436397   4.673329
72   72   2     3.0000   9.703908   5.468649   4.672738
73   73   2     3.0000   2.830790   2.926469   4.784793
74   74   2     3.0000   2.849303   8.163710   4.677123
75   75   2     3.0000   5.584601   2.942466   4.681868
76   76   2     3.0000   5.473056   7.982289   4.550180
77   77   2     3.0000   8.306483   3.151332   4.671498
78   78   2     3.0000   8.307866   7.996234   4.460330
79   79   2     3.0000   0.057594   2.954526   4.764991
80   80   2     3.0000   0.089212   8.032150   4.692301
81   81   2     3.0000   0.106206   1.333545   9.184723
82   82   2     3.0000   10.742843   6.426236   9.343387
83   83   2     3.0000   2.665691   1.386917   9.411296
84   84   2     3.0000   2.646608   6.222297   9.524493
85   85   2     3.0000   5.302250   1.172338   9.340103
86   86   2     3.0000   5.464827   6.239017   9.487776
87   87   2     3.0000   8.158297   1.315056   9.225897
88   88   2     3.0000   8.096900   6.349342   9.405646
89   89   2     3.0000   1.323481   3.785846   9.441062
90   90   2     3.0000   1.494572   8.815455   9.117764
91   91   2     3.0000   3.984011   3.718094   9.456750
92   92   2     3.0000   3.921796   8.963054   9.531450
93   93   2     3.0000   6.738221   3.653374   9.435982
94   94   2     3.0000   6.672456   9.026141   9.364945
95   95   2     3.0000   9.491766   3.810268   9.514232
96   96   2     3.0000   9.505015   8.917323   9.135517
97   97   3    -2.0000   2.872498   4.597169   3.795695
98   97   4     0.0000   2.872498   4.597169   3.795695
99   98   3    -2.0000   2.899088   9.705589   3.414588
100  98   4     0.0000   2.899088   9.705589   3.414588
101  99   3    -2.0000   5.415344   4.673029   3.610647
102  99   4     0.0000   5.415344   4.673029   3.610647
103  100  3    -2.0000   5.639144   9.792454   3.485119
104  100  4     0.0000   5.639144   9.792454   3.485119
105  101  3    -2.0000   8.340943   4.725565   3.710556
106  101  4     0.0000   8.340943   4.725565   3.710556
107  102  3    -2.0000   8.395381   9.886408   3.449049
108  102  4     0.0000   8.395381   9.886408   3.449049
109  103  3    -2.0000   0.030391   4.615534   3.757502
110  103  4     0.0000   0.030391   4.615534   3.757502
111  104  3    -2.0000   0.008970   9.924430   3.703894
112  104  4     0.0000   0.008970   9.924430   3.703894
113  105  3    -2.0000   1.378275   2.073700   3.796237
114  105  4     0.0000   1.378275   2.073700   3.796237
115  106  3    -2.0000   1.335491   7.336313   3.781868
116  106  4     0.0000   1.335491   7.336313   3.781868
117  107  3    -2.0000   4.202094   2.380528   3.737488
118  107  4     0.0000   4.202094   2.380528   3.737488
119  108  3    -2.0000   4.045838   6.986714   3.730780
120  108  4     0.0000   4.045838   6.986714   3.730780
121  109  3    -2.0000   6.849180   2.289633   3.501738
122  109  4     0.0000   6.849180   2.289633   3.501738
123  110  3    -2.0000   6.987717   6.989446   3.454158
124  110  4     0.0000   6.987717   6.989446   3.454158
125  111  3    -2.0000   9.615428   2.165161   3.811107
126  111  4     0.0000   9.615428   2.165161   3.811107
127  112  3    -2.0000   9.694308   7.153368   3.566185
128  112  4     0.0000   9.694308   7.153368   3.566185
129  113  3    -2.0000   10.819064   4.648563   10.397849
130  113  4     0.0000   10.819064   4.648563   10.397849
131  114  3    -2.0000   0.172606   9.588623   10.044503
132  114  4     0.0000   0.172606   9.588623   10.044503
133  115  3    -2.0000   2.631712   4.656949   10.402755
134  115  4     0.0000   2.631712   4.656949   10.402755
135  116  3    -2.0000   2.750146   9.704942   10.555364
136  116  4     0.0000   2.750146   9.704942   10.555364
137  117  3    -2.0000   5.375470   4.512664   10.577556
138  117  4     0.0000   5.375470   4.512664   10.577556
139  118  3    -2.0000   5.259395   9.577494   10.502811
140  118  4     0.0000   5.259395   9.577494   10.502811
141  119  3    -2.0000   8.038383   4.701290   10.239897
142  119  4     0.0000   8.038383   4.701290   10.239897
143  120  3    -2.0000   8.081463   9.768371   10.250607
144  120  4     0.0000   8.081463   9.768371   10.250607
145  121  3    -2.0000   1.398272   2.381536   10.470657
146  121  4     0.0000   1.398272   2.381536   10.470657
147  122  3    -2.0000   1.150022   7.257926   10.322145
148  122  4     0.0000   1.150022   7.257926   10.322145
149  123  3    -2.0000   3.939671   2.169697   10.399351
150  123  4     0.0000   3.939671   2.169697   10.399351
151  124  3    -2.0000   4.056483   6.957951   10.607241
152  124  4     0.0000   4.056483   6.957951   10.607241
153  125  3    -2.0000   7.105363   2.161472   10.555955
154  125  4     0.0000   7.105363   2.161472   10.555955
155  126  3    -2.0000   6.852972   7.243189   10.393156
156  126  4     0.0000   6.852972   7.243189   10.393156
157  127  3    -2.0000   9.692892   1.982561   10.257810
158  127  4     0.0000   9.692892   1.982561   10.257810
159  128  3    -2.0000   9.533794   7.262224   10.354768
160  128  4     0.0000   9.533794   7.262224   10.354768
161  129  3    -2.0000   1.546511   0.730533   8.304708
162  129  4     0.0000   1.546511   0.730533   8.304708
163  130  3    -2.0000   1.184669   5.474415   8.512137
164  130  4     0.0000   1.184669   5.474415   8.512137
165  131  3    -2.0000   3.880810   0.321589   8.206069
166  131  4     0.0000   3.880810   0.321589   8.206069
167  132  3    -2.0000   4.125000   5.378052   8.269842
168  132  4     0.0000   4.125000   5.378052   8.269842
169  133  3    -2.0000   6.590744   0.284202   8.234425
170  133  4     0.0000   6.590744   0.284202   8.234425
171  134  3    -2.0000   6.705353   5.547624   8.486407
172  134  4     0.0000   6.705353   5.547624   8.486407
173  135  3    -2.0000   9.295318   0.562427   8.080602
174  135  4     0.0000   9.295318   0.562427   8.080602
175  136  3    -2.0000   9.262215   5.875300   8.286422
176  136  4     0.0000   9.262215   5.875300   8.286422
177  137  3    -2.0000   10.911718   3.016506   8.311479
178  137  4     0.0000   10.911718   3.016506   8.311479
179  138  3    -2.0000   0.014678   8.116440   7.956852
180  138  4     0.0000   0.014678   8.116440   7.956852
181  139  3    -2.0000   2.440113   2.954512   8.371867
182  139  4     0.0000   2.440113   2.954512   8.371867
183  140  3    -2.0000   2.904537   7.957832   8.430517
184  140  4     0.0000   2.904537   7.957832   8.430517
185  141  3    -2.0000   5.475535   3.022060   8.405043
186  141  4     0.0000   5.475535   3.022060   8.405043
187  142  3    -2.0000   5.348668   8.009365   8.440383
188  142  4     0.0000   5.348668   8.009365   8.440383
189  143  3    -2.0000   8.271618   2.936401   8.355211
190  143  4     0.0000   8.271618   2.936401   8.355211
191  144  3    -2.0000   7.932081   8.181929   8.314696
192  144  4     0.0000   7.932081   8.181929   8.314696
193  145  3    -2.0000   1.563695   0.658821   1.220678
194  145  4     0.0000   1.563695   0.658821   1.220678
195  146  3    -2.0000   1.487292   5.856292   1.199774
196  146  4     0.0000   1.487292   5.856292   1.199774
197  147  3    -2.0000   4.043579   0.872258   1.042399
198  147  4     0.0000   4.043579   0.872258   1.042399
199  148  3    -2.0000   4.124983   5.440645   1.106749
200  148  4     0.0000   4.124983   5.440645   1.106749
201  149  3    -2.0000   6.812555   0.603788   1.122986
202  149  4     0.0000   6.812555   0.603788   1.122986
203  150  3    -2.0000   6.777290   5.458412   1.160644
204  150  4     0.0000   6.777290   5.458412   1.160644
205  151  3    -2.0000   9.625586   0.628655   1.122951
206  151  4     0.0000   9.625586   0.628655   1.122951
207  152  3    -2.0000   9.631448   5.601032   0.720714
208  152  4     0.0000   9.631448   5.601032   0.720714
209  153  3    -2.0000   10.820480   3.115511   1.249678
210  153  4     0.0000   10.820480   3.115511   1.249678
211  154  3    -2.0000   0.034531   7.867743   1.155564
212  154  4     0.0000   0.034531   7.867743   1.155564
213  155  3    -2.0000   2.598007   3.405473   1.410710
214  155  4     0.0000   2.598007   3.405473   1.410710
215  156  3    -2.0000   2.788764   8.155366   1.097880
216  156  4     0.0000   2.788764   8.155366   1.097880
217  157  3    -2.0000   5.421833   3.071610   1.237094
218  157  4     0.0000   5.421833   3.071610   1.237094
219  158  3    -2.0000   5.435194   8.229433   0.921470
220  158  4     0.0000   5.435194   8.229433   0.921470
221  159  3    -2.0000   8.196657   3.133304   1.389878
222  159  4     0.0000   8.196657   3.133304   1.389878
223  160  3    -2.0000   8.017588   8.107436   0.851026
224  160  4     0.0000   8.017588   8.107436   0.851026
225  161  3    -2.0000   10.912911   1.193019   13.047463
226  161  4     0.0000   10.912911   1.193019   13.047463
227  162  3    -2.0000   0.096644   6.333048   13.220860
228  162  4     0.0000   0.096644   6.333048   13.220860
229  163  3    -2.0000   2.699692   1.668489   12.955165
230  163  4     0.0000   2.699692   1.668489   12.955165
231  164  3    -2.0000   2.587600   6.420324   12.977834
232  164  4     0.0000   2.587600   6.420324   12.977834
233  165  3    -2.0000   5.296924   1.484896   13.182236
234  165  4     0.0000   5.296924   1.484896   13.182236
235  166  3    -2.0000   5.314402   6.415740   12.999468
236  166  4     0.0000   5.314402   6.415740   12.999468
237  167  3    -2.0000   8.215190   1.305713   13.262765
238  167  4     0.0000   8.215190   1.305713   13.262765
239  168  3    -2.0000   7.986618   6.568387   12.897180
240  168  4     0.0000   7.986618   6.568387   12.897180
241  169  3    -2.0000   1.130900   3.798172   13.020892
242  169  4     0.0000   1.130900   3.798172   13.020892
243  170  3    -2.0000   1.407189   8.958664   12.948703
244  170  4     0.0000   1.407189   8.958664   12.948703
245  171  3    -2.0000   4.069382   3.775222   12.926597
246  171  4     0.0000   4.069382   3.775222   12.926597
247  172  3    -2.0000   3.871027   9.296740   13.094730
248  172  4     0.0000   3.871027   9.296740   13.094730
249  173  3    -2.0000   6.873314   3.757210   13.036963
250  173  4     0.0000   6.873314   3.757210   13.036963
251  174  3    -2.0000   6.544647   9.197382   12.829113
252  174  4     0.0000   6.544647   9.197382   12.829113
253  175  3    -2.0000   9.469986   3.864213   12.751684
254  175  4     0.0000   9.469986   3.864213   12.751684
255  176  3    -2.0000   9.597628   8.679930   12.911889
256  176  4     0.0000   9.597628   8.679930   12.911889
257  177  3    -2.0000   2.818815   1.481643   5.778215
258  177  4     0.0000   2.818815   1.481643   5.778215
259  178  3    -2.0000   2.892625   6.219894   5.617999
260  178  4     0.0000   2.892625   6.219894   5.617999
261  179  3    -2.0000   5.458007   1.392640   5.694014
262  179  4     0.0000   5.458007   1.392640   5.694014
263  180  3    -2.0000   5.544263   6.113490   5.701785
264  180  4     0.0000   5.544263   6.113490   5.701785
265  181  3    -2.0000   8.184405   1.399989   5.571165
266  181  4     0.0000   8.184405   1.399989   5.571165
267  182  3    -2.0000   8.335616   6.084745   5.644923
268  182  4     0.0000   8.335616   6.084745   5.644923
269  183  3    -2.0000   0.023623   1.256861   5.796484
270  183  4     0.0000   0.023623   1.256861   5.796484
271  184  3    -2.0000   0.022453   6.358355   5.764976
272  184  4     0.0000   0.022453   6.358355   5.764976
273  185  3    -2.0000   1.481464   3.600696   5.687280
274  185  4     0.0000   1.481464   3.600696   5.687280
275  186  3    -2.0000   1.571094   9.100993   5.659810
276  186  4     0.0000   1.571094   9.100993   5.659810
277  187  3    -2.0000   4.263688   3.804885   5.656402
278  187  4     0.0000   4.263688   3.804885   5.656402
279  188  3    -2.0000   4.118826   8.850367   5.689944
280  188  4     0.0000   4.118826   8.850367   5.689944
281  189  3    -2.0000   6.822060   3.720509   5.694172
282  189  4     0.0000   6.822060   3.720509   5.694172
283  190  3    -2.0000   6.921714   8.407949   5.580737
284  190  4     0.0000   6.921714   8.407949   5.580737
285  191  3    -2.0000   9.762303   3.646116   5.818683
286  191  4     0.0000   9.762303   3.646116   5.818683
287  192  3    -2.0000   9.551796   8.764296   5.536384
288  192  4     0.0000   9.551796   8.764296   5.536384

Bonds

1    1    97   98  
2    1    99   100 
3    1    101  102 
4    1    103  104 
5    1    105  106 
6    1    107  108 
7    1    109  110 
8    1    111  112 
9    1    113  114 
10   1    115  116 
11   1    117  118 
12   1    119  120 
13   1    121  122 
14   1    123  124 
15   1    125  126 
16   1    127  128 
17   1    129  130 
18   1    131  132 
19   1    133  134 
20   1    135  136 
21   1    137  138 
22   1    139  140 
23   1    141  142 
24   1    143  144 
25   1    145  146 
26   1    147  148 
27   1    149  150 
28   1    151  152 
29   1    153  154 
30   1    155  156 
31   1    157  158 
32   1    159  160 
33   1    161  162 
34   1    163  164 
35   1    165  166 
36   1    167  168 
37   1    169  170 
38   1    171  172 
39   1    173  174 
40   1    175  176 
41   1    177  178 
42   1    179  180 
43   1    181  182 
44   1    183  184 
45   1    185  186 
46   1    187  188 
47   1    189  190 
48   1    191  192 
49   1    193  194 
50   1    195  196 
51   1    197  198 
52   1    199  200 
53   1    201  202 
54   1    203  204 
55   1    205  206 
56   1    207  208 
57   1    209  210 
58   1    211  212 
59   1    213  214 
60   1    215  216 
61   1    217  218 
62   1    219  220 
63   1    221  222 
64   1    223  224 
65   1    225  226 
66   1    227  228 
67   1    229  230 
68   1    231  232 
69   1    233  234 
70   1    235  236 
71   1    237  238 
72   1    239  240 
73   1    241  242 
74   1    243  244 
75   1    245  246 
76   1    247  248 
77   1    249  250 
78   1    251  252 
79   1    253  254 
80   1    255  256 
81   1    257  258 
82   1    259  260 
83   1    261  262 
84   1    263  264 
85   1    265  266 
86   1    267  268 
87   1    269  270 
88   1    271  272 
89   1    273  274 
90   1    275  276 
91   1    277  278 
92   1    279  280 
93   1    281  282 
94   1    283  284 
95   1    285  286 
96   1    287  288 

