title

288   atoms
96   bonds

4   atom types
1   bond types

0.0 12.176542 xlo xhi
0.0 9.588532 ylo yhi
0.0 13.997015 zlo zhi

-4.66146 0.58146 0.44776 xy xz yz 

Masses

1   6.94100 # Li
2  58.69340 # Ni
3  14.39910 # O core
4   1.59990 # O shell

Atoms

1    1    1     1.0000   0.143745   1.563822   2.450415
2    2    1     1.0000  -0.560251   4.039424   2.506907
3    3    1     1.0000  -2.229734   6.619297   2.363788
4    4    1     1.0000  -3.248021   8.874168   2.362318
5    5    1     1.0000   3.012845   1.656422   2.254877
6    6    1     1.0000   2.164168   4.315426   2.295525
7    7    1     1.0000   1.216848   6.667912   2.643042
8    8    1     1.0000  -0.408021   8.878361   2.252078
9    9    1     1.0000   5.709239   1.525028   2.446132
10   10   1     1.0000   5.010466   4.094070   2.071040
11   11   1     1.0000   4.016705   6.222937   2.151495
12   12   1     1.0000   2.268067   8.789764   2.249684
13   13   1     1.0000   8.649621   1.624240   2.301291
14   14   1     1.0000   7.802779   4.092891   2.497096
15   15   1     1.0000   6.484583   6.641898   2.440338
16   16   1     1.0000   5.373578   8.752945   2.488599
17   17   1     1.0000  -4.103743   9.738969   6.989676
18   18   1     1.0000   10.251566   2.727601   7.250482
19   19   1     1.0000  -1.911379   5.104634   6.635621
20   20   1     1.0000   7.931285   7.174224   6.975119
21   21   1     1.0000   3.258294   0.396879   7.077619
22   22   1     1.0000   1.752007   2.457610   6.883270
23   23   1     1.0000   0.892764   5.062698   6.780462
24   24   1     1.0000  -0.433862   7.601647   6.947922
25   25   1     1.0000   1.368993   9.535335   7.154532
26   26   1     1.0000   4.766526   2.443025   7.081566
27   27   1     1.0000   3.394231   4.602759   6.906799
28   28   1     1.0000   2.497383   7.331081   7.073546
29   29   1     1.0000   8.976914   0.257426   7.092988
30   30   1     1.0000   7.531400   2.709562   7.119246
31   31   1     1.0000   6.411744   4.810332   7.088159
32   32   1     1.0000   5.049187   7.271418   7.191764
33   33   1     1.0000   1.854759   1.360790   11.308707
34   34   1     1.0000   0.959555   3.749086   11.906155
35   35   1     1.0000  -0.726549   5.628127   11.821599
36   36   1     1.0000  -1.280868   8.460382   11.644929
37   37   1     1.0000   4.662218   1.101952   11.434148
38   38   1     1.0000   3.596105   3.678908   11.719337
39   39   1     1.0000   2.504742   5.982319   11.530391
40   40   1     1.0000   1.051918   8.059577   11.705088
41   41   1     1.0000   7.314407   1.078109   11.634361
42   42   1     1.0000   6.295421   3.204344   11.764267
43   43   1     1.0000   5.291127   5.736030   11.876887
44   44   1     1.0000   4.161422   8.351169   11.847214
45   45   1     1.0000   10.504006   0.909038   11.913742
46   46   1     1.0000   9.261032   3.546772   11.693695
47   47   1     1.0000   7.915536   6.014516   11.559897
48   48   1     1.0000   7.168008   8.299537   11.581452
49   49   2     3.0000   11.182375   0.071442   0.058647
50   50   2     3.0000   10.596373   2.832302   13.942497
51   51   2     3.0000   9.412396   5.375193   13.934071
52   52   2     3.0000   7.643927   7.145434   0.117393
53   53   2     3.0000  -1.425379   9.997168   13.633149
54   54   2     3.0000   2.458270   2.949484   13.968643
55   55   2     3.0000   0.622035   4.799975   0.131180
56   56   2     3.0000  -0.880474   7.148637   0.051943
57   57   2     3.0000   0.951729   9.525270   0.005781
58   58   2     3.0000   4.459113   2.460524   0.182171
59   59   2     3.0000   3.968894   5.317579   13.883402
60   60   2     3.0000   2.736581   7.630726   13.918898
61   61   2     3.0000   4.381230   9.931678   13.943519
62   62   2     3.0000   7.314671   2.449170   0.061363
63   63   2     3.0000   6.126232   4.759605   0.006383
64   64   2     3.0000   5.562299   7.559610   13.925505
65   65   2     3.0000   1.811014   1.158929   4.679286
66   66   2     3.0000   0.358146   3.400022   4.704635
67   67   2     3.0000  -0.656869   5.873341   4.728346
68   68   2     3.0000  -1.748884   8.246775   4.638457
69   69   2     3.0000   4.537739   0.967210   4.782136
70   70   2     3.0000   3.367702   3.210782   4.655029
71   71   2     3.0000   2.328034   5.615491   4.595752
72   72   2     3.0000   1.015763   8.189319   4.749033
73   73   2     3.0000   7.346318   0.898631   4.522870
74   74   2     3.0000   6.122908   3.270829   4.478443
75   75   2     3.0000   5.111898   5.637800   4.603884
76   76   2     3.0000   3.784280   8.075638   4.675423
77   77   2     3.0000   10.145115   0.958679   4.681330
78   78   2     3.0000   9.033762   3.398867   4.567940
79   79   2     3.0000   7.960605   5.788038   4.695089
80   80   2     3.0000   6.604638   8.289228   4.713719
81   81   2     3.0000   0.547674   1.933432   9.271735
82   82   2     3.0000  -0.604916   4.292349   9.505597
83   83   2     3.0000  -1.856631   6.645441   9.389716
84   84   2     3.0000  -3.057826   9.125356   8.989065
85   85   2     3.0000   3.190458   1.988582   9.262427
86   86   2     3.0000   2.130014   4.263913   9.456832
87   87   2     3.0000   0.945289   6.659333   9.145790
88   88   2     3.0000  -0.298944   9.108084   9.385979
89   89   2     3.0000   6.179791   1.870839   9.363947
90   90   2     3.0000   4.953339   4.290086   9.389058
91   91   2     3.0000   3.761666   6.671490   9.461451
92   92   2     3.0000   2.584861   9.054785   9.571719
93   93   2     3.0000   9.001870   1.802755   9.426108
94   94   2     3.0000   7.663075   4.088629   9.456062
95   95   2     3.0000   6.600049   6.693434   9.407296
96   96   2     3.0000   5.457253   9.002554   9.406974
97   97   3     0.9600   11.330082   0.193296   3.798706
98   97   4    -2.9600   11.330082   0.193296   3.798706
99   98   3     0.9600   9.966672   2.437421   3.402618
100  98   4    -2.9600   9.966672   2.437421   3.402618
101  99   3     0.9600  -2.085264   4.930521   3.615667
102  99   4    -2.9600  -2.085264   4.930521   3.615667
103  100  3     0.9600  -3.363046   7.526505   3.704618
104  100  4    -2.9600  -3.363046   7.526505   3.704618
105  101  3     0.9600   2.770261   0.135824   3.579709
106  101  4    -2.9600   2.770261   0.135824   3.579709
107  102  3     0.9600   1.444243   2.509041   3.633317
108  102  4    -2.9600   1.444243   2.509041   3.633317
109  103  3     0.9600   0.668244   4.997650   3.738015
110  103  4    -2.9600   0.668244   4.997650   3.738015
111  104  3     0.9600  -0.511537   7.477963   3.818974
112  104  4    -2.9600  -0.511537   7.477963   3.818974
113  105  3     0.9600   0.902617   9.542414   3.496902
114  105  4    -2.9600   0.902617   9.542414   3.496902
115  106  3     0.9600   4.579630   2.473842   3.581234
116  106  4    -2.9600   4.579630   2.473842   3.581234
117  107  3     0.9600   3.628869   4.749471   3.778676
118  107  4    -2.9600   3.628869   4.749471   3.778676
119  108  3     0.9600   2.491841   7.296984   3.406636
120  108  4    -2.9600   2.491841   7.296984   3.406636
121  109  3     0.9600   8.880667   0.208649   3.795067
122  109  4    -2.9600   8.880667   0.208649   3.795067
123  110  3     0.9600   7.262681   2.336913   3.398265
124  110  4    -2.9600   7.262681   2.336913   3.398265
125  111  3     0.9600   6.232275   4.703185   3.430906
126  111  4    -2.9600   6.232275   4.703185   3.430906
127  112  3     0.9600   5.178115   7.291463   3.497238
128  112  4    -2.9600   5.178115   7.291463   3.497238
129  113  3     0.9600   1.539599   0.890141   0.999527
130  113  4    -2.9600   1.539599   0.890141   0.999527
131  114  3     0.9600   0.373006   3.157545   0.854518
132  114  4    -2.9600   0.373006   3.157545   0.854518
133  115  3     0.9600  -0.993250   5.571692   1.178283
134  115  4    -2.9600  -0.993250   5.571692   1.178283
135  116  3     0.9600  -2.032102   8.106096   0.990821
136  116  4    -2.9600  -2.032102   8.106096   0.990821
137  117  3     0.9600   4.185427   0.664347   0.802519
138  117  4    -2.9600   4.185427   0.664347   0.802519
139  118  3     0.9600   3.471702   3.686841   1.187829
140  118  4    -2.9600   3.471702   3.686841   1.187829
141  119  3     0.9600   2.375960   5.777965   0.974374
142  119  4    -2.9600   2.375960   5.777965   0.974374
143  120  3     0.9600   0.738187   7.822217   0.866723
144  120  4    -2.9600   0.738187   7.822217   0.866723
145  121  3     0.9600   7.470807   0.809137   1.281819
146  121  4    -2.9600   7.470807   0.809137   1.281819
147  122  3     0.9600   6.333493   3.288017   1.249724
148  122  4    -2.9600   6.333493   3.288017   1.249724
149  123  3     0.9600   4.784099   5.646184   0.820589
150  123  4    -2.9600   4.784099   5.646184   0.820589
151  124  3     0.9600   3.715267   7.915353   1.046347
152  124  4    -2.9600   3.715267   7.915353   1.046347
153  125  3     0.9600   9.987033   0.983688   1.095868
154  125  4    -2.9600   9.987033   0.983688   1.095868
155  126  3     0.9600   9.004097   3.447033   1.008135
156  126  4    -2.9600   9.004097   3.447033   1.008135
157  127  3     0.9600   7.452225   5.598152   0.997329
158  127  4    -2.9600   7.452225   5.598152   0.997329
159  128  3     0.9600   6.776031   8.269567   1.341194
160  128  4    -2.9600   6.776031   8.269567   1.341194
161  129  3     0.9600   1.481964   1.041259   8.066466
162  129  4    -2.9600   1.481964   1.041259   8.066466
163  130  3     0.9600   0.643560   3.575764   8.566593
164  130  4    -2.9600   0.643560   3.575764   8.566593
165  131  3     0.9600  -0.527335   5.814994   8.425615
166  131  4    -2.9600  -0.527335   5.814994   8.425615
167  132  3     0.9600  -1.777556   8.118183   8.199186
168  132  4    -2.9600  -1.777556   8.118183   8.199186
169  133  3     0.9600   4.436445   1.128339   8.393604
170  133  4    -2.9600   4.436445   1.128339   8.393604
171  134  3     0.9600   3.333589   3.408043   8.192635
172  134  4    -2.9600   3.333589   3.408043   8.192635
173  135  3     0.9600   2.022179   5.631934   8.155403
174  135  4    -2.9600   2.022179   5.631934   8.155403
175  136  3     0.9600   0.654962   8.145737   8.193125
176  136  4    -2.9600   0.654962   8.145737   8.193125
177  137  3     0.9600   7.520854   0.886637   8.489428
178  137  4    -2.9600   7.520854   0.886637   8.489428
179  138  3     0.9600   6.113514   3.382876   8.156243
180  138  4    -2.9600   6.113514   3.382876   8.156243
181  139  3     0.9600   5.208047   5.862596   8.577063
182  139  4    -2.9600   5.208047   5.862596   8.577063
183  140  3     0.9600   4.032907   8.178882   8.569337
184  140  4    -2.9600   4.032907   8.178882   8.569337
185  141  3     0.9600   10.127299   0.925849   8.208242
186  141  4    -2.9600   10.127299   0.925849   8.208242
187  142  3     0.9600   8.928260   3.405611   8.412122
188  142  4    -2.9600   8.928260   3.405611   8.412122
189  143  3     0.9600   7.915813   5.859517   8.384408
190  143  4    -2.9600   7.915813   5.859517   8.384408
191  144  3     0.9600   6.392503   7.949286   8.204365
192  144  4    -2.9600   6.392503   7.949286   8.204365
193  145  3     0.9600   0.336082   1.806787   5.597518
194  145  4    -2.9600   0.336082   1.806787   5.597518
195  146  3     0.9600  -0.548603   4.332487   5.863126
196  146  4    -2.9600  -0.548603   4.332487   5.863126
197  147  3     0.9600  -1.739037   6.871518   5.785848
198  147  4    -2.9600  -1.739037   6.871518   5.785848
199  148  3     0.9600  -2.891249   9.200732   5.568447
200  148  4    -2.9600  -2.891249   9.200732   5.568447
201  149  3     0.9600   3.068058   1.711619   5.803485
202  149  4    -2.9600   3.068058   1.711619   5.803485
203  150  3     0.9600   2.003476   4.211458   5.607988
204  150  4    -2.9600   2.003476   4.211458   5.607988
205  151  3     0.9600   1.327592   6.687400   5.595461
206  151  4    -2.9600   1.327592   6.687400   5.595461
207  152  3     0.9600  -0.344452   9.016198   5.786912
208  152  4    -2.9600  -0.344452   9.016198   5.786912
209  153  3     0.9600   6.188992   1.832297   5.606910
210  153  4    -2.9600   6.188992   1.832297   5.606910
211  154  3     0.9600   5.082615   4.186838   5.793197
212  154  4    -2.9600   5.082615   4.186838   5.793197
213  155  3     0.9600   3.695190   6.429653   5.337622
214  155  4    -2.9600   3.695190   6.429653   5.337622
215  156  3     0.9600   2.541832   8.937843   5.587916
216  156  4    -2.9600   2.541832   8.937843   5.587916
217  157  3     0.9600   8.987612   1.847409   5.634079
218  157  4    -2.9600   8.987612   1.847409   5.634079
219  158  3     0.9600   7.675747   4.142643   5.424571
220  158  4    -2.9600   7.675747   4.142643   5.424571
221  159  3     0.9600   6.490493   6.522303   5.638586
222  159  4    -2.9600   6.490493   6.522303   5.638586
223  160  3     0.9600   5.294483   8.982299   5.807516
224  160  4    -2.9600   5.294483   8.982299   5.807516
225  161  3     0.9600   0.465702   1.951829   12.796337
226  161  4    -2.9600   0.465702   1.951829   12.796337
227  162  3     0.9600  -0.696251   4.339423   12.873027
228  162  4    -2.9600  -0.696251   4.339423   12.873027
229  163  3     0.9600  -1.716727   6.910703   12.819391
230  163  4    -2.9600  -1.716727   6.910703   12.819391
231  164  3     0.9600  -2.972991   9.014118   13.030899
232  164  4    -2.9600  -2.972991   9.014118   13.030899
233  165  3     0.9600   3.277535   1.985766   12.621249
234  165  4    -2.9600   3.277535   1.985766   12.621249
235  166  3     0.9600   2.620717   4.572305   12.975471
236  166  4    -2.9600   2.620717   4.572305   12.975471
237  167  3     0.9600   0.803868   6.717751   12.978047
238  167  4    -2.9600   0.803868   6.717751   12.978047
239  168  3     0.9600  -0.067812   9.156670   12.745010
240  168  4    -2.9600  -0.067812   9.156670   12.745010
241  169  3     0.9600   6.403444   2.076675   13.198346
242  169  4    -2.9600   6.403444   2.076675   13.198346
243  170  3     0.9600   5.288694   4.451178   13.220293
244  170  4    -2.9600   5.288694   4.451178   13.220293
245  171  3     0.9600   3.813678   6.695176   12.602283
246  171  4    -2.9600   3.813678   6.695176   12.602283
247  172  3     0.9600   2.713270   9.020923   12.756488
248  172  4    -2.9600   2.713270   9.020923   12.756488
249  173  3     0.9600   9.186156   2.100488   13.222351
250  173  4    -2.9600   9.186156   2.100488   13.222351
251  174  3     0.9600   8.087864   4.414855   13.025888
252  174  4    -2.9600   8.087864   4.414855   13.025888
253  175  3     0.9600   6.672476   6.530190   12.706057
254  175  4    -2.9600   6.672476   6.530190   12.706057
255  176  3     0.9600   5.848672   9.208986   13.151638
256  176  4    -2.9600   5.848672   9.208986   13.151638
257  177  3     0.9600   0.458907   0.335950   10.103102
258  177  4    -2.9600   0.458907   0.335950   10.103102
259  178  3     0.9600   10.452605   2.726147   10.143791
260  178  4    -2.9600   10.452605   2.726147   10.143791
261  179  3     0.9600   9.280108   5.147595   10.461061
262  179  4    -2.9600   9.280108   5.147595   10.461061
263  180  3     0.9600   7.920694   7.438266   10.385855
264  180  4    -2.9600   7.920694   7.438266   10.385855
265  181  3     0.9600   3.352881   0.630933   10.404233
266  181  4    -2.9600   3.352881   0.630933   10.404233
267  182  3     0.9600   2.043824   2.887140   10.401112
268  182  4    -2.9600   2.043824   2.887140   10.401112
269  183  3     0.9600   1.039213   5.207969   10.395289
270  183  4    -2.9600   1.039213   5.207969   10.395289
271  184  3     0.9600  -0.522549   7.538164   10.255585
272  184  4    -2.9600  -0.522549   7.538164   10.255585
273  185  3     0.9600   6.069053   0.477589   10.354852
274  185  4    -2.9600   6.069053   0.477589   10.354852
275  186  3     0.9600   5.094527   2.771344   10.378171
276  186  4    -2.9600   5.094527   2.771344   10.378171
277  187  3     0.9600   3.569437   5.039792   10.379557
278  187  4    -2.9600   3.569437   5.039792   10.379557
279  188  3     0.9600   2.259900   7.324716   10.194754
280  188  4    -2.9600   2.259900   7.324716   10.194754
281  189  3     0.9600   4.385563   9.835807   10.460907
282  189  4    -2.9600   4.385563   9.835807   10.460907
283  190  3     0.9600   7.930754   2.485409   10.585033
284  190  4    -2.9600   7.930754   2.485409   10.585033
285  191  3     0.9600   6.567273   4.899373   10.451263
286  191  4    -2.9600   6.567273   4.899373   10.451263
287  192  3     0.9600   5.516281   7.701131   10.596189
288  192  4    -2.9600   5.516281   7.701131   10.596189

Bonds

1    1    97   98  
2    1    99   100 
3    1    101  102 
4    1    103  104 
5    1    105  106 
6    1    107  108 
7    1    109  110 
8    1    111  112 
9    1    113  114 
10   1    115  116 
11   1    117  118 
12   1    119  120 
13   1    121  122 
14   1    123  124 
15   1    125  126 
16   1    127  128 
17   1    129  130 
18   1    131  132 
19   1    133  134 
20   1    135  136 
21   1    137  138 
22   1    139  140 
23   1    141  142 
24   1    143  144 
25   1    145  146 
26   1    147  148 
27   1    149  150 
28   1    151  152 
29   1    153  154 
30   1    155  156 
31   1    157  158 
32   1    159  160 
33   1    161  162 
34   1    163  164 
35   1    165  166 
36   1    167  168 
37   1    169  170 
38   1    171  172 
39   1    173  174 
40   1    175  176 
41   1    177  178 
42   1    179  180 
43   1    181  182 
44   1    183  184 
45   1    185  186 
46   1    187  188 
47   1    189  190 
48   1    191  192 
49   1    193  194 
50   1    195  196 
51   1    197  198 
52   1    199  200 
53   1    201  202 
54   1    203  204 
55   1    205  206 
56   1    207  208 
57   1    209  210 
58   1    211  212 
59   1    213  214 
60   1    215  216 
61   1    217  218 
62   1    219  220 
63   1    221  222 
64   1    223  224 
65   1    225  226 
66   1    227  228 
67   1    229  230 
68   1    231  232 
69   1    233  234 
70   1    235  236 
71   1    237  238 
72   1    239  240 
73   1    241  242 
74   1    243  244 
75   1    245  246 
76   1    247  248 
77   1    249  250 
78   1    251  252 
79   1    253  254 
80   1    255  256 
81   1    257  258 
82   1    259  260 
83   1    261  262 
84   1    263  264 
85   1    265  266 
86   1    267  268 
87   1    269  270 
88   1    271  272 
89   1    273  274 
90   1    275  276 
91   1    277  278 
92   1    279  280 
93   1    281  282 
94   1    283  284 
95   1    285  286 
96   1    287  288 

