title

2304   atoms
768   bonds

4   atom types
1   bond types


0.0 21.831472 xlo xhi
0.0 20.121716 ylo yhi
0.0 28.105434 zlo zhi

0.00000 0.00000 0.00000 xy xz yz 

Masses

1   6.94100 # Li
2  58.69340 # Ni
3  14.39910 # O core
4   1.59990 # O shell

Atoms

1    1    1     1.0000   2.745352   1.417487   2.449288
2    2    1     1.0000   2.745352   1.417487   16.502005
3    3    1     1.0000   2.745352   11.478345   2.449288
4    4    1     1.0000   2.745352   11.478345   16.502005
5    5    1     1.0000   13.661088   1.417487   2.449288
6    6    1     1.0000   13.661088   1.417487   16.502005
7    7    1     1.0000   13.661088   11.478345   2.449288
8    8    1     1.0000   13.661088   11.478345   16.502005
9    9    1     1.0000   2.717808   6.243825   2.338412
10   10   1     1.0000   2.717808   6.243825   16.391129
11   11   1     1.0000   2.717808   16.304683   2.338412
12   12   1     1.0000   2.717808   16.304683   16.391129
13   13   1     1.0000   13.633544   6.243825   2.338412
14   14   1     1.0000   13.633544   6.243825   16.391129
15   15   1     1.0000   13.633544   16.304683   2.338412
16   16   1     1.0000   13.633544   16.304683   16.391129
17   17   1     1.0000   5.652370   1.421158   2.272225
18   18   1     1.0000   5.652370   1.421158   16.324941
19   19   1     1.0000   5.652370   11.482016   2.272225
20   20   1     1.0000   5.652370   11.482016   16.324941
21   21   1     1.0000   16.568106   1.421158   2.272225
22   22   1     1.0000   16.568106   1.421158   16.324941
23   23   1     1.0000   16.568106   11.482016   2.272225
24   24   1     1.0000   16.568106   11.482016   16.324941
25   25   1     1.0000   5.491765   6.314947   2.405608
26   26   1     1.0000   5.491765   6.314947   16.458324
27   27   1     1.0000   5.491765   16.375804   2.405608
28   28   1     1.0000   5.491765   16.375804   16.458324
29   29   1     1.0000   16.407501   6.314947   2.405608
30   30   1     1.0000   16.407501   6.314947   16.458324
31   31   1     1.0000   16.407501   16.375804   2.405608
32   32   1     1.0000   16.407501   16.375804   16.458324
33   33   1     1.0000   8.049080   1.237847   2.193835
34   34   1     1.0000   8.049080   1.237847   16.246551
35   35   1     1.0000   8.049080   11.298705   2.193835
36   36   1     1.0000   8.049080   11.298705   16.246551
37   37   1     1.0000   18.964816   1.237847   2.193835
38   38   1     1.0000   18.964816   1.237847   16.246551
39   39   1     1.0000   18.964816   11.298705   2.193835
40   40   1     1.0000   18.964816   11.298705   16.246551
41   41   1     1.0000   8.053698   6.196714   2.448884
42   42   1     1.0000   8.053698   6.196714   16.501601
43   43   1     1.0000   8.053698   16.257572   2.448884
44   44   1     1.0000   8.053698   16.257572   16.501601
45   45   1     1.0000   18.969434   6.196714   2.448884
46   46   1     1.0000   18.969434   6.196714   16.501601
47   47   1     1.0000   18.969434   16.257572   2.448884
48   48   1     1.0000   18.969434   16.257572   16.501601
49   49   1     1.0000   10.746001   1.548387   2.287575
50   50   1     1.0000   10.746001   1.548387   16.340292
51   51   1     1.0000   10.746001   11.609245   2.287575
52   52   1     1.0000   10.746001   11.609245   16.340292
53   53   1     1.0000   21.661737   1.548387   2.287575
54   54   1     1.0000   21.661737   1.548387   16.340292
55   55   1     1.0000   21.661737   11.609245   2.287575
56   56   1     1.0000   21.661737   11.609245   16.340292
57   57   1     1.0000   10.724337   5.986203   2.239772
58   58   1     1.0000   10.724337   5.986203   16.292489
59   59   1     1.0000   10.724337   16.047061   2.239772
60   60   1     1.0000   10.724337   16.047061   16.292489
61   61   1     1.0000   21.640073   5.986203   2.239772
62   62   1     1.0000   21.640073   5.986203   16.292489
63   63   1     1.0000   21.640073   16.047061   2.239772
64   64   1     1.0000   21.640073   16.047061   16.292489
65   65   1     1.0000   1.250565   4.070512   2.289761
66   66   1     1.0000   1.250565   4.070512   16.342478
67   67   1     1.0000   1.250565   14.131370   2.289761
68   68   1     1.0000   1.250565   14.131370   16.342478
69   69   1     1.0000   12.166301   4.070512   2.289761
70   70   1     1.0000   12.166301   4.070512   16.342478
71   71   1     1.0000   12.166301   14.131370   2.289761
72   72   1     1.0000   12.166301   14.131370   16.342478
73   73   1     1.0000   1.419820   9.125346   2.170210
74   74   1     1.0000   1.419820   9.125346   16.222927
75   75   1     1.0000   1.419820   19.186204   2.170210
76   76   1     1.0000   1.419820   19.186204   16.222927
77   77   1     1.0000   12.335556   9.125346   2.170210
78   78   1     1.0000   12.335556   9.125346   16.222927
79   79   1     1.0000   12.335556   19.186204   2.170210
80   80   1     1.0000   12.335556   19.186204   16.222927
81   81   1     1.0000   4.433449   3.504231   2.259684
82   82   1     1.0000   4.433449   3.504231   16.312401
83   83   1     1.0000   4.433449   13.565089   2.259684
84   84   1     1.0000   4.433449   13.565089   16.312401
85   85   1     1.0000   15.349186   3.504231   2.259684
86   86   1     1.0000   15.349186   3.504231   16.312401
87   87   1     1.0000   15.349186   13.565089   2.259684
88   88   1     1.0000   15.349186   13.565089   16.312401
89   89   1     1.0000   4.114160   8.861210   2.087747
90   90   1     1.0000   4.114160   8.861210   16.140464
91   91   1     1.0000   4.114160   18.922068   2.087747
92   92   1     1.0000   4.114160   18.922068   16.140464
93   93   1     1.0000   15.029896   8.861210   2.087747
94   94   1     1.0000   15.029896   8.861210   16.140464
95   95   1     1.0000   15.029896   18.922068   2.087747
96   96   1     1.0000   15.029896   18.922068   16.140464
97   97   1     1.0000   6.746997   3.823237   2.355005
98   98   1     1.0000   6.746997   3.823237   16.407722
99   99   1     1.0000   6.746997   13.884095   2.355005
100  100  1     1.0000   6.746997   13.884095   16.407722
101  101  1     1.0000   17.662733   3.823237   2.355005
102  102  1     1.0000   17.662733   3.823237   16.407722
103  103  1     1.0000   17.662733   13.884095   2.355005
104  104  1     1.0000   17.662733   13.884095   16.407722
105  105  1     1.0000   7.003099   8.472484   2.293025
106  106  1     1.0000   7.003099   8.472484   16.345742
107  107  1     1.0000   7.003099   18.533342   2.293025
108  108  1     1.0000   7.003099   18.533342   16.345742
109  109  1     1.0000   17.918835   8.472484   2.293025
110  110  1     1.0000   17.918835   8.472484   16.345742
111  111  1     1.0000   17.918835   18.533342   2.293025
112  112  1     1.0000   17.918835   18.533342   16.345742
113  113  1     1.0000   9.539231   3.895771   2.423612
114  114  1     1.0000   9.539231   3.895771   16.476328
115  115  1     1.0000   9.539231   13.956629   2.423612
116  116  1     1.0000   9.539231   13.956629   16.476328
117  117  1     1.0000   20.454967   3.895771   2.423612
118  118  1     1.0000   20.454967   3.895771   16.476328
119  119  1     1.0000   20.454967   13.956629   2.423612
120  120  1     1.0000   20.454967   13.956629   16.476328
121  121  1     1.0000   9.607451   8.791426   2.276184
122  122  1     1.0000   9.607451   8.791426   16.328900
123  123  1     1.0000   9.607451   18.852284   2.276184
124  124  1     1.0000   9.607451   18.852284   16.328900
125  125  1     1.0000   20.523187   8.791426   2.276184
126  126  1     1.0000   20.523187   8.791426   16.328900
127  127  1     1.0000   20.523187   18.852284   2.276184
128  128  1     1.0000   20.523187   18.852284   16.328900
129  129  1     1.0000   0.926407   0.736666   11.540452
130  130  1     1.0000   0.926407   0.736666   25.593169
131  131  1     1.0000   0.926407   10.797523   11.540452
132  132  1     1.0000   0.926407   10.797523   25.593169
133  133  1     1.0000   11.842143   0.736666   11.540452
134  134  1     1.0000   11.842143   0.736666   25.593169
135  135  1     1.0000   11.842143   10.797523   11.540452
136  136  1     1.0000   11.842143   10.797523   25.593169
137  137  1     1.0000   1.396139   5.503912   11.707672
138  138  1     1.0000   1.396139   5.503912   25.760389
139  139  1     1.0000   1.396139   15.564770   11.707672
140  140  1     1.0000   1.396139   15.564770   25.760389
141  141  1     1.0000   12.311875   5.503912   11.707672
142  142  1     1.0000   12.311875   5.503912   25.760389
143  143  1     1.0000   12.311875   15.564770   11.707672
144  144  1     1.0000   12.311875   15.564770   25.760389
145  145  1     1.0000   4.012187   0.187590   11.776042
146  146  1     1.0000   4.012187   0.187590   25.828758
147  147  1     1.0000   4.012187   10.248447   11.776042
148  148  1     1.0000   4.012187   10.248447   25.828758
149  149  1     1.0000   14.927923   0.187590   11.776042
150  150  1     1.0000   14.927923   0.187590   25.828758
151  151  1     1.0000   14.927923   10.248447   11.776042
152  152  1     1.0000   14.927923   10.248447   25.828758
153  153  1     1.0000   4.054934   5.638513   11.465239
154  154  1     1.0000   4.054934   5.638513   25.517956
155  155  1     1.0000   4.054934   15.699371   11.465239
156  156  1     1.0000   4.054934   15.699371   25.517956
157  157  1     1.0000   14.970670   5.638513   11.465239
158  158  1     1.0000   14.970670   5.638513   25.517956
159  159  1     1.0000   14.970670   15.699371   11.465239
160  160  1     1.0000   14.970670   15.699371   25.517956
161  161  1     1.0000   6.917694   0.549523   11.697536
162  162  1     1.0000   6.917694   0.549523   25.750253
163  163  1     1.0000   6.917694   10.610380   11.697536
164  164  1     1.0000   6.917694   10.610380   25.750253
165  165  1     1.0000   17.833431   0.549523   11.697536
166  166  1     1.0000   17.833431   0.549523   25.750253
167  167  1     1.0000   17.833431   10.610380   11.697536
168  168  1     1.0000   17.833431   10.610380   25.750253
169  169  1     1.0000   6.985220   5.332220   11.568800
170  170  1     1.0000   6.985220   5.332220   25.621517
171  171  1     1.0000   6.985220   15.393078   11.568800
172  172  1     1.0000   6.985220   15.393078   25.621517
173  173  1     1.0000   17.900957   5.332220   11.568800
174  174  1     1.0000   17.900957   5.332220   25.621517
175  175  1     1.0000   17.900957   15.393078   11.568800
176  176  1     1.0000   17.900957   15.393078   25.621517
177  177  1     1.0000   9.495530   0.485744   11.819611
178  178  1     1.0000   9.495530   0.485744   25.872327
179  179  1     1.0000   9.495530   10.546602   11.819611
180  180  1     1.0000   9.495530   10.546602   25.872327
181  181  1     1.0000   20.411267   0.485744   11.819611
182  182  1     1.0000   20.411267   0.485744   25.872327
183  183  1     1.0000   20.411267   10.546602   11.819611
184  184  1     1.0000   20.411267   10.546602   25.872327
185  185  1     1.0000   9.702765   5.643446   11.873226
186  186  1     1.0000   9.702765   5.643446   25.925943
187  187  1     1.0000   9.702765   15.704304   11.873226
188  188  1     1.0000   9.702765   15.704304   25.925943
189  189  1     1.0000   20.618501   5.643446   11.873226
190  190  1     1.0000   20.618501   5.643446   25.925943
191  191  1     1.0000   20.618501   15.704304   11.873226
192  192  1     1.0000   20.618501   15.704304   25.925943
193  193  1     1.0000   0.230755   2.982583   11.858017
194  194  1     1.0000   0.230755   2.982583   25.910734
195  195  1     1.0000   0.230755   13.043441   11.858017
196  196  1     1.0000   0.230755   13.043441   25.910734
197  197  1     1.0000   11.146492   2.982583   11.858017
198  198  1     1.0000   11.146492   2.982583   25.910734
199  199  1     1.0000   11.146492   13.043441   11.858017
200  200  1     1.0000   11.146492   13.043441   25.910734
201  201  1     1.0000   10.817266   8.067660   11.695936
202  202  1     1.0000   10.817266   8.067660   25.748653
203  203  1     1.0000   10.817266   18.128518   11.695936
204  204  1     1.0000   10.817266   18.128518   25.748653
205  205  1     1.0000   21.733002   8.067660   11.695936
206  206  1     1.0000   21.733002   8.067660   25.748653
207  207  1     1.0000   21.733002   18.128518   11.695936
208  208  1     1.0000   21.733002   18.128518   25.748653
209  209  1     1.0000   2.775680   2.805512   11.857298
210  210  1     1.0000   2.775680   2.805512   25.910015
211  211  1     1.0000   2.775680   12.866370   11.857298
212  212  1     1.0000   2.775680   12.866370   25.910015
213  213  1     1.0000   13.691417   2.805512   11.857298
214  214  1     1.0000   13.691417   2.805512   25.910015
215  215  1     1.0000   13.691417   12.866370   11.857298
216  216  1     1.0000   13.691417   12.866370   25.910015
217  217  1     1.0000   2.695161   8.044460   11.951848
218  218  1     1.0000   2.695161   8.044460   26.004565
219  219  1     1.0000   2.695161   18.105318   11.951848
220  220  1     1.0000   2.695161   18.105318   26.004565
221  221  1     1.0000   13.610898   8.044460   11.951848
222  222  1     1.0000   13.610898   8.044460   26.004565
223  223  1     1.0000   13.610898   18.105318   11.951848
224  224  1     1.0000   13.610898   18.105318   26.004565
225  225  1     1.0000   5.415959   3.180882   11.564738
226  226  1     1.0000   5.415959   3.180882   25.617455
227  227  1     1.0000   5.415959   13.241739   11.564738
228  228  1     1.0000   5.415959   13.241739   25.617455
229  229  1     1.0000   16.331695   3.180882   11.564738
230  230  1     1.0000   16.331695   3.180882   25.617455
231  231  1     1.0000   16.331695   13.241739   11.564738
232  232  1     1.0000   16.331695   13.241739   25.617455
233  233  1     1.0000   5.463381   8.415099   11.873515
234  234  1     1.0000   5.463381   8.415099   25.926232
235  235  1     1.0000   5.463381   18.475957   11.873515
236  236  1     1.0000   5.463381   18.475957   25.926232
237  237  1     1.0000   16.379117   8.415099   11.873515
238  238  1     1.0000   16.379117   8.415099   25.926232
239  239  1     1.0000   16.379117   18.475957   11.873515
240  240  1     1.0000   16.379117   18.475957   25.926232
241  241  1     1.0000   8.277992   3.078855   11.687594
242  242  1     1.0000   8.277992   3.078855   25.740311
243  243  1     1.0000   8.277992   13.139713   11.687594
244  244  1     1.0000   8.277992   13.139713   25.740311
245  245  1     1.0000   19.193728   3.078855   11.687594
246  246  1     1.0000   19.193728   3.078855   25.740311
247  247  1     1.0000   19.193728   13.139713   11.687594
248  248  1     1.0000   19.193728   13.139713   25.740311
249  249  1     1.0000   7.866296   7.957201   11.677101
250  250  1     1.0000   7.866296   7.957201   25.729818
251  251  1     1.0000   7.866296   18.018059   11.677101
252  252  1     1.0000   7.866296   18.018059   25.729818
253  253  1     1.0000   18.782032   7.957201   11.677101
254  254  1     1.0000   18.782032   7.957201   25.729818
255  255  1     1.0000   18.782032   18.018059   11.677101
256  256  1     1.0000   18.782032   18.018059   25.729818
257  257  1     1.0000   10.870516   4.580951   7.078151
258  258  1     1.0000   10.870516   4.580951   21.130868
259  259  1     1.0000   10.870516   14.641809   7.078151
260  260  1     1.0000   10.870516   14.641809   21.130868
261  261  1     1.0000   21.786252   4.580951   7.078151
262  262  1     1.0000   21.786252   4.580951   21.130868
263  263  1     1.0000   21.786252   14.641809   7.078151
264  264  1     1.0000   21.786252   14.641809   21.130868
265  265  1     1.0000   0.074122   9.627460   6.986495
266  266  1     1.0000   0.074122   9.627460   21.039212
267  267  1     1.0000   0.074122   19.688318   6.986495
268  268  1     1.0000   0.074122   19.688318   21.039212
269  269  1     1.0000   10.989859   9.627460   6.986495
270  270  1     1.0000   10.989859   9.627460   21.039212
271  271  1     1.0000   10.989859   19.688318   6.986495
272  272  1     1.0000   10.989859   19.688318   21.039212
273  273  1     1.0000   3.107045   4.466624   6.897081
274  274  1     1.0000   3.107045   4.466624   20.949798
275  275  1     1.0000   3.107045   14.527481   6.897081
276  276  1     1.0000   3.107045   14.527481   20.949798
277  277  1     1.0000   14.022782   4.466624   6.897081
278  278  1     1.0000   14.022782   4.466624   20.949798
279  279  1     1.0000   14.022782   14.527481   6.897081
280  280  1     1.0000   14.022782   14.527481   20.949798
281  281  1     1.0000   2.765395   9.542114   6.974624
282  282  1     1.0000   2.765395   9.542114   21.027341
283  283  1     1.0000   2.765395   19.602971   6.974624
284  284  1     1.0000   2.765395   19.602971   21.027341
285  285  1     1.0000   13.681131   9.542114   6.974624
286  286  1     1.0000   13.681131   9.542114   21.027341
287  287  1     1.0000   13.681131   19.602971   6.974624
288  288  1     1.0000   13.681131   19.602971   21.027341
289  289  1     1.0000   5.751847   4.583366   6.931472
290  290  1     1.0000   5.751847   4.583366   20.984189
291  291  1     1.0000   5.751847   14.644223   6.931472
292  292  1     1.0000   5.751847   14.644223   20.984189
293  293  1     1.0000   16.667584   4.583366   6.931472
294  294  1     1.0000   16.667584   4.583366   20.984189
295  295  1     1.0000   16.667584   14.644223   6.931472
296  296  1     1.0000   16.667584   14.644223   20.984189
297  297  1     1.0000   5.662212   9.824981   6.807168
298  298  1     1.0000   5.662212   9.824981   20.859884
299  299  1     1.0000   5.662212   19.885838   6.807168
300  300  1     1.0000   5.662212   19.885838   20.859884
301  301  1     1.0000   16.577948   9.824981   6.807168
302  302  1     1.0000   16.577948   9.824981   20.859884
303  303  1     1.0000   16.577948   19.885838   6.807168
304  304  1     1.0000   16.577948   19.885838   20.859884
305  305  1     1.0000   8.404094   4.811909   7.008988
306  306  1     1.0000   8.404094   4.811909   21.061704
307  307  1     1.0000   8.404094   14.872767   7.008988
308  308  1     1.0000   8.404094   14.872767   21.061704
309  309  1     1.0000   19.319830   4.811909   7.008988
310  310  1     1.0000   19.319830   4.811909   21.061704
311  311  1     1.0000   19.319830   14.872767   7.008988
312  312  1     1.0000   19.319830   14.872767   21.061704
313  313  1     1.0000   8.322204   9.467557   7.060537
314  314  1     1.0000   8.322204   9.467557   21.113254
315  315  1     1.0000   8.322204   19.528415   7.060537
316  316  1     1.0000   8.322204   19.528415   21.113254
317  317  1     1.0000   19.237941   9.467557   7.060537
318  318  1     1.0000   19.237941   9.467557   21.113254
319  319  1     1.0000   19.237941   19.528415   7.060537
320  320  1     1.0000   19.237941   19.528415   21.113254
321  321  1     1.0000   1.274477   2.025233   6.983184
322  322  1     1.0000   1.274477   2.025233   21.035901
323  323  1     1.0000   1.274477   12.086090   6.983184
324  324  1     1.0000   1.274477   12.086090   21.035901
325  325  1     1.0000   12.190213   2.025233   6.983184
326  326  1     1.0000   12.190213   2.025233   21.035901
327  327  1     1.0000   12.190213   12.086090   6.983184
328  328  1     1.0000   12.190213   12.086090   21.035901
329  329  1     1.0000   1.445220   6.966169   6.949946
330  330  1     1.0000   1.445220   6.966169   21.002663
331  331  1     1.0000   1.445220   17.027027   6.949946
332  332  1     1.0000   1.445220   17.027027   21.002663
333  333  1     1.0000   12.360956   6.966169   6.949946
334  334  1     1.0000   12.360956   6.966169   21.002663
335  335  1     1.0000   12.360956   17.027027   6.949946
336  336  1     1.0000   12.360956   17.027027   21.002663
337  337  1     1.0000   4.096601   2.109474   6.804556
338  338  1     1.0000   4.096601   2.109474   20.857273
339  339  1     1.0000   4.096601   12.170332   6.804556
340  340  1     1.0000   4.096601   12.170332   20.857273
341  341  1     1.0000   15.012338   2.109474   6.804556
342  342  1     1.0000   15.012338   2.109474   20.857273
343  343  1     1.0000   15.012338   12.170332   6.804556
344  344  1     1.0000   15.012338   12.170332   20.857273
345  345  1     1.0000   3.987496   7.211977   7.150210
346  346  1     1.0000   3.987496   7.211977   21.202926
347  347  1     1.0000   3.987496   17.272835   7.150210
348  348  1     1.0000   3.987496   17.272835   21.202926
349  349  1     1.0000   14.903232   7.211977   7.150210
350  350  1     1.0000   14.903232   7.211977   21.202926
351  351  1     1.0000   14.903232   17.272835   7.150210
352  352  1     1.0000   14.903232   17.272835   21.202926
353  353  1     1.0000   6.607097   2.445401   7.147766
354  354  1     1.0000   6.607097   2.445401   21.200483
355  355  1     1.0000   6.607097   12.506259   7.147766
356  356  1     1.0000   6.607097   12.506259   21.200483
357  357  1     1.0000   17.522834   2.445401   7.147766
358  358  1     1.0000   17.522834   2.445401   21.200483
359  359  1     1.0000   17.522834   12.506259   7.147766
360  360  1     1.0000   17.522834   12.506259   21.200483
361  361  1     1.0000   6.826564   7.357556   6.978074
362  362  1     1.0000   6.826564   7.357556   21.030791
363  363  1     1.0000   6.826564   17.418414   6.978074
364  364  1     1.0000   6.826564   17.418414   21.030791
365  365  1     1.0000   17.742300   7.357556   6.978074
366  366  1     1.0000   17.742300   7.357556   21.030791
367  367  1     1.0000   17.742300   17.418414   6.978074
368  368  1     1.0000   17.742300   17.418414   21.030791
369  369  1     1.0000   9.359869   2.145575   7.160731
370  370  1     1.0000   9.359869   2.145575   21.213448
371  371  1     1.0000   9.359869   12.206433   7.160731
372  372  1     1.0000   9.359869   12.206433   21.213448
373  373  1     1.0000   20.275605   2.145575   7.160731
374  374  1     1.0000   20.275605   2.145575   21.213448
375  375  1     1.0000   20.275605   12.206433   7.160731
376  376  1     1.0000   20.275605   12.206433   21.213448
377  377  1     1.0000   9.710824   7.254986   7.105213
378  378  1     1.0000   9.710824   7.254986   21.157929
379  379  1     1.0000   9.710824   17.315844   7.105213
380  380  1     1.0000   9.710824   17.315844   21.157929
381  381  1     1.0000   20.626560   7.254986   7.105213
382  382  1     1.0000   20.626560   7.254986   21.157929
383  383  1     1.0000   20.626560   17.315844   7.105213
384  384  1     1.0000   20.626560   17.315844   21.157929
385  385  2     3.0000   0.235885   4.663041   13.984225
386  386  2     3.0000   0.235885   4.663041   28.036942
387  387  2     3.0000   0.235885   14.723899   13.984225
388  388  2     3.0000   0.235885   14.723899   28.036942
389  389  2     3.0000   11.151621   4.663041   13.984225
390  390  2     3.0000   11.151621   4.663041   28.036942
391  391  2     3.0000   11.151621   14.723899   13.984225
392  392  2     3.0000   11.151621   14.723899   28.036942
393  393  2     3.0000   10.869950   9.790471   0.082352
394  394  2     3.0000   10.869950   9.790471   14.135069
395  395  2     3.0000   10.869950   19.851328   0.082352
396  396  2     3.0000   10.869950   19.851328   14.135069
397  397  2     3.0000   21.785686   9.790471   0.082352
398  398  2     3.0000   21.785686   9.790471   14.135069
399  399  2     3.0000   21.785686   19.851328   0.082352
400  400  2     3.0000   21.785686   19.851328   14.135069
401  401  2     3.0000   2.898572   4.613338   0.021266
402  402  2     3.0000   2.898572   4.613338   14.073982
403  403  2     3.0000   2.898572   14.674196   0.021266
404  404  2     3.0000   2.898572   14.674196   14.073982
405  405  2     3.0000   13.814309   4.613338   0.021266
406  406  2     3.0000   13.814309   4.613338   14.073982
407  407  2     3.0000   13.814309   14.674196   0.021266
408  408  2     3.0000   13.814309   14.674196   14.073982
409  409  2     3.0000   2.754398   9.739702   0.036746
410  410  2     3.0000   2.754398   9.739702   14.089463
411  411  2     3.0000   2.754398   19.800560   0.036746
412  412  2     3.0000   2.754398   19.800560   14.089463
413  413  2     3.0000   13.670134   9.739702   0.036746
414  414  2     3.0000   13.670134   9.739702   14.089463
415  415  2     3.0000   13.670134   19.800560   0.036746
416  416  2     3.0000   13.670134   19.800560   14.089463
417  417  2     3.0000   5.666882   4.702372   13.875383
418  418  2     3.0000   5.666882   4.702372   27.928100
419  419  2     3.0000   5.666882   14.763230   13.875383
420  420  2     3.0000   5.666882   14.763230   27.928100
421  421  2     3.0000   16.582618   4.702372   13.875383
422  422  2     3.0000   16.582618   4.702372   27.928100
423  423  2     3.0000   16.582618   14.763230   13.875383
424  424  2     3.0000   16.582618   14.763230   27.928100
425  425  2     3.0000   5.440141   9.746230   13.916184
426  426  2     3.0000   5.440141   9.746230   27.968901
427  427  2     3.0000   5.440141   19.807088   13.916184
428  428  2     3.0000   5.440141   19.807088   27.968901
429  429  2     3.0000   16.355877   9.746230   13.916184
430  430  2     3.0000   16.355877   9.746230   27.968901
431  431  2     3.0000   16.355877   19.807088   13.916184
432  432  2     3.0000   16.355877   19.807088   27.968901
433  433  2     3.0000   8.333691   4.666917   0.007707
434  434  2     3.0000   8.333691   4.666917   14.060424
435  435  2     3.0000   8.333691   14.727775   0.007707
436  436  2     3.0000   8.333691   14.727775   14.060424
437  437  2     3.0000   19.249427   4.666917   0.007707
438  438  2     3.0000   19.249427   4.666917   14.060424
439  439  2     3.0000   19.249427   14.727775   0.007707
440  440  2     3.0000   19.249427   14.727775   14.060424
441  441  2     3.0000   8.133603   9.701662   13.979524
442  442  2     3.0000   8.133603   9.701662   28.032241
443  443  2     3.0000   8.133603   19.762519   13.979524
444  444  2     3.0000   8.133603   19.762519   28.032241
445  445  2     3.0000   19.049339   9.701662   13.979524
446  446  2     3.0000   19.049339   9.701662   28.032241
447  447  2     3.0000   19.049339   19.762519   13.979524
448  448  2     3.0000   19.049339   19.762519   28.032241
449  449  2     3.0000   1.499583   2.115857   0.166718
450  450  2     3.0000   1.499583   2.115857   14.219434
451  451  2     3.0000   1.499583   12.176715   0.166718
452  452  2     3.0000   1.499583   12.176715   14.219434
453  453  2     3.0000   12.415320   2.115857   0.166718
454  454  2     3.0000   12.415320   2.115857   14.219434
455  455  2     3.0000   12.415320   12.176715   0.166718
456  456  2     3.0000   12.415320   12.176715   14.219434
457  457  2     3.0000   1.445875   7.218759   0.029548
458  458  2     3.0000   1.445875   7.218759   14.082265
459  459  2     3.0000   1.445875   17.279617   0.029548
460  460  2     3.0000   1.445875   17.279617   14.082265
461  461  2     3.0000   12.361611   7.218759   0.029548
462  462  2     3.0000   12.361611   7.218759   14.082265
463  463  2     3.0000   12.361611   17.279617   0.029548
464  464  2     3.0000   12.361611   17.279617   14.082265
465  465  2     3.0000   4.143464   2.276404   14.006889
466  466  2     3.0000   4.143464   2.276404   28.059606
467  467  2     3.0000   4.143464   12.337262   14.006889
468  468  2     3.0000   4.143464   12.337262   28.059606
469  469  2     3.0000   15.059200   2.276404   14.006889
470  470  2     3.0000   15.059200   2.276404   28.059606
471  471  2     3.0000   15.059200   12.337262   14.006889
472  472  2     3.0000   15.059200   12.337262   28.059606
473  473  2     3.0000   4.227374   7.155504   0.180490
474  474  2     3.0000   4.227374   7.155504   14.233207
475  475  2     3.0000   4.227374   17.216362   0.180490
476  476  2     3.0000   4.227374   17.216362   14.233207
477  477  2     3.0000   15.143111   7.155504   0.180490
478  478  2     3.0000   15.143111   7.155504   14.233207
479  479  2     3.0000   15.143111   17.216362   0.180490
480  480  2     3.0000   15.143111   17.216362   14.233207
481  481  2     3.0000   6.870839   2.204503   13.895534
482  482  2     3.0000   6.870839   2.204503   27.948251
483  483  2     3.0000   6.870839   12.265361   13.895534
484  484  2     3.0000   6.870839   12.265361   27.948251
485  485  2     3.0000   17.786575   2.204503   13.895534
486  486  2     3.0000   17.786575   2.204503   27.948251
487  487  2     3.0000   17.786575   12.265361   13.895534
488  488  2     3.0000   17.786575   12.265361   27.948251
489  489  2     3.0000   6.882506   7.105415   0.169260
490  490  2     3.0000   6.882506   7.105415   14.221977
491  491  2     3.0000   6.882506   17.166272   0.169260
492  492  2     3.0000   6.882506   17.166272   14.221977
493  493  2     3.0000   17.798242   7.105415   0.169260
494  494  2     3.0000   17.798242   7.105415   14.221977
495  495  2     3.0000   17.798242   17.166272   0.169260
496  496  2     3.0000   17.798242   17.166272   14.221977
497  497  2     3.0000   9.588586   2.203287   0.047574
498  498  2     3.0000   9.588586   2.203287   14.100290
499  499  2     3.0000   9.588586   12.264145   0.047574
500  500  2     3.0000   9.588586   12.264145   14.100290
501  501  2     3.0000   20.504323   2.203287   0.047574
502  502  2     3.0000   20.504323   2.203287   14.100290
503  503  2     3.0000   20.504323   12.264145   0.047574
504  504  2     3.0000   20.504323   12.264145   14.100290
505  505  2     3.0000   9.796842   7.197744   0.113950
506  506  2     3.0000   9.796842   7.197744   14.166666
507  507  2     3.0000   9.796842   17.258601   0.113950
508  508  2     3.0000   9.796842   17.258601   14.166666
509  509  2     3.0000   20.712578   7.197744   0.113950
510  510  2     3.0000   20.712578   7.197744   14.166666
511  511  2     3.0000   20.712578   17.258601   0.113950
512  512  2     3.0000   20.712578   17.258601   14.166666
513  513  2     3.0000   1.415210   0.566399   4.640323
514  514  2     3.0000   1.415210   0.566399   18.693040
515  515  2     3.0000   1.415210   10.627256   4.640323