title

1536   atoms
3   atom types

0.0 21.831472 xlo xhi
0.0 20.121716 ylo yhi
0.0 28.105434 zlo zhi

0.00000 0.00000 0.00000 xy xz yz 

Masses

1   6.94100 # Li
2  58.69340 # Ni
3  15.99990 # O

Atoms

1    1    1     1.0000   2.451963   1.287912   2.404392
2    2    1     1.0000   2.451963   1.287912   16.457108
3    3    1     1.0000   2.451963   11.348770   2.404392
4    4    1     1.0000   2.451963   11.348770   16.457108
5    5    1     1.0000   13.367699   1.287912   2.404392
6    6    1     1.0000   13.367699   1.287912   16.457108
7    7    1     1.0000   13.367699   11.348770   2.404392
8    8    1     1.0000   13.367699   11.348770   16.457108
9    9    1     1.0000   2.631201   6.390200   2.563826
10   10   1     1.0000   2.631201   6.390200   16.616543
11   11   1     1.0000   2.631201   16.451057   2.563826
12   12   1     1.0000   2.631201   16.451057   16.616543
13   13   1     1.0000   13.546937   6.390200   2.563826
14   14   1     1.0000   13.546937   6.390200   16.616543
15   15   1     1.0000   13.546937   16.451057   2.563826
16   16   1     1.0000   13.546937   16.451057   16.616543
17   17   1     1.0000   5.346418   1.498135   2.362298
18   18   1     1.0000   5.346418   1.498135   16.415015
19   19   1     1.0000   5.346418   11.558993   2.362298
20   20   1     1.0000   5.346418   11.558993   16.415015
21   21   1     1.0000   16.262154   1.498135   2.362298
22   22   1     1.0000   16.262154   1.498135   16.415015
23   23   1     1.0000   16.262154   11.558993   2.362298
24   24   1     1.0000   16.262154   11.558993   16.415015
25   25   1     1.0000   5.650405   6.510401   2.383979
26   26   1     1.0000   5.650405   6.510401   16.436696
27   27   1     1.0000   5.650405   16.571258   2.383979
28   28   1     1.0000   5.650405   16.571258   16.436696
29   29   1     1.0000   16.566141   6.510401   2.383979
30   30   1     1.0000   16.566141   6.510401   16.436696
31   31   1     1.0000   16.566141   16.571258   2.383979
32   32   1     1.0000   16.566141   16.571258   16.436696
33   33   1     1.0000   8.546825   0.937618   2.088320
34   34   1     1.0000   8.546825   0.937618   16.141036
35   35   1     1.0000   8.546825   10.998476   2.088320
36   36   1     1.0000   8.546825   10.998476   16.141036
37   37   1     1.0000   19.462562   0.937618   2.088320
38   38   1     1.0000   19.462562   0.937618   16.141036
39   39   1     1.0000   19.462562   10.998476   2.088320
40   40   1     1.0000   19.462562   10.998476   16.141036
41   41   1     1.0000   8.283372   6.508724   2.170617
42   42   1     1.0000   8.283372   6.508724   16.223333
43   43   1     1.0000   8.283372   16.569582   2.170617
44   44   1     1.0000   8.283372   16.569582   16.223333
45   45   1     1.0000   19.199108   6.508724   2.170617
46   46   1     1.0000   19.199108   6.508724   16.223333
47   47   1     1.0000   19.199108   16.569582   2.170617
48   48   1     1.0000   19.199108   16.569582   16.223333
49   49   1     1.0000   0.138140   1.149375   2.313552
50   50   1     1.0000   0.138140   1.149375   16.366269
51   51   1     1.0000   0.138140   11.210233   2.313552
52   52   1     1.0000   0.138140   11.210233   16.366269
53   53   1     1.0000   11.053876   1.149375   2.313552
54   54   1     1.0000   11.053876   1.149375   16.366269
55   55   1     1.0000   11.053876   11.210233   2.313552
56   56   1     1.0000   11.053876   11.210233   16.366269
57   57   1     1.0000   10.733449   6.375235   2.413626
58   58   1     1.0000   10.733449   6.375235   16.466343
59   59   1     1.0000   10.733449   16.436093   2.413626
60   60   1     1.0000   10.733449   16.436093   16.466343
61   61   1     1.0000   21.649185   6.375235   2.413626
62   62   1     1.0000   21.649185   6.375235   16.466343
63   63   1     1.0000   21.649185   16.436093   2.413626
64   64   1     1.0000   21.649185   16.436093   16.466343
65   65   1     1.0000   1.309761   3.748176   2.410142
66   66   1     1.0000   1.309761   3.748176   16.462859
67   67   1     1.0000   1.309761   13.809034   2.410142
68   68   1     1.0000   1.309761   13.809034   16.462859
69   69   1     1.0000   12.225497   3.748176   2.410142
70   70   1     1.0000   12.225497   3.748176   16.462859
71   71   1     1.0000   12.225497   13.809034   2.410142
72   72   1     1.0000   12.225497   13.809034   16.462859
73   73   1     1.0000   1.466428   8.597463   2.518729
74   74   1     1.0000   1.466428   8.597463   16.571446
75   75   1     1.0000   1.466428   18.658321   2.518729
76   76   1     1.0000   1.466428   18.658321   16.571446
77   77   1     1.0000   12.382164   8.597463   2.518729
78   78   1     1.0000   12.382164   8.597463   16.571446
79   79   1     1.0000   12.382164   18.658321   2.518729
80   80   1     1.0000   12.382164   18.658321   16.571446
81   81   1     1.0000   4.193583   3.927658   2.374159
82   82   1     1.0000   4.193583   3.927658   16.426875
83   83   1     1.0000   4.193583   13.988516   2.374159
84   84   1     1.0000   4.193583   13.988516   16.426875
85   85   1     1.0000   15.109319   3.927658   2.374159
86   86   1     1.0000   15.109319   3.927658   16.426875
87   87   1     1.0000   15.109319   13.988516   2.374159
88   88   1     1.0000   15.109319   13.988516   16.426875
89   89   1     1.0000   4.087457   8.977168   2.038323
90   90   1     1.0000   4.087457   8.977168   16.091040
91   91   1     1.0000   4.087457   19.038025   2.038323
92   92   1     1.0000   4.087457   19.038025   16.091040
93   93   1     1.0000   15.003194   8.977168   2.038323
94   94   1     1.0000   15.003194   8.977168   16.091040
95   95   1     1.0000   15.003194   19.038025   2.038323
96   96   1     1.0000   15.003194   19.038025   16.091040
97   97   1     1.0000   6.884944   3.756469   2.412510
98   98   1     1.0000   6.884944   3.756469   16.465227
99   99   1     1.0000   6.884944   13.817327   2.412510
100  100  1     1.0000   6.884944   13.817327   16.465227
101  101  1     1.0000   17.800680   3.756469   2.412510
102  102  1     1.0000   17.800680   3.756469   16.465227
103  103  1     1.0000   17.800680   13.817327   2.412510
104  104  1     1.0000   17.800680   13.817327   16.465227
105  105  1     1.0000   6.685285   9.112485   2.336296
106  106  1     1.0000   6.685285   9.112485   16.389013
107  107  1     1.0000   6.685285   19.173343   2.336296
108  108  1     1.0000   6.685285   19.173343   16.389013
109  109  1     1.0000   17.601021   9.112485   2.336296
110  110  1     1.0000   17.601021   9.112485   16.389013
111  111  1     1.0000   17.601021   19.173343   2.336296
112  112  1     1.0000   17.601021   19.173343   16.389013
113  113  1     1.0000   9.498695   3.589341   2.443623
114  114  1     1.0000   9.498695   3.589341   16.496340
115  115  1     1.0000   9.498695   13.650199   2.443623
116  116  1     1.0000   9.498695   13.650199   16.496340
117  117  1     1.0000   20.414431   3.589341   2.443623
118  118  1     1.0000   20.414431   3.589341   16.496340
119  119  1     1.0000   20.414431   13.650199   2.443623
120  120  1     1.0000   20.414431   13.650199   16.496340
121  121  1     1.0000   9.854434   8.943648   2.326051
122  122  1     1.0000   9.854434   8.943648   16.378768
123  123  1     1.0000   9.854434   19.004506   2.326051
124  124  1     1.0000   9.854434   19.004506   16.378768
125  125  1     1.0000   20.770170   8.943648   2.326051
126  126  1     1.0000   20.770170   8.943648   16.378768
127  127  1     1.0000   20.770170   19.004506   2.326051
128  128  1     1.0000   20.770170   19.004506   16.378768
129  129  1     1.0000   1.426830   0.668597   11.369592
130  130  1     1.0000   1.426830   0.668597   25.422309
131  131  1     1.0000   1.426830   10.729455   11.369592
132  132  1     1.0000   1.426830   10.729455   25.422309
133  133  1     1.0000   12.342567   0.668597   11.369592
134  134  1     1.0000   12.342567   0.668597   25.422309
135  135  1     1.0000   12.342567   10.729455   11.369592
136  136  1     1.0000   12.342567   10.729455   25.422309
137  137  1     1.0000   1.478269   5.550102   11.576958
138  138  1     1.0000   1.478269   5.550102   25.629675
139  139  1     1.0000   1.478269   15.610960   11.576958
140  140  1     1.0000   1.478269   15.610960   25.629675
141  141  1     1.0000   12.394005   5.550102   11.576958
142  142  1     1.0000   12.394005   5.550102   25.629675
143  143  1     1.0000   12.394005   15.610960   11.576958
144  144  1     1.0000   12.394005   15.610960   25.629675
145  145  1     1.0000   4.067035   0.362491   11.756895
146  146  1     1.0000   4.067035   0.362491   25.809611
147  147  1     1.0000   4.067035   10.423349   11.756895
148  148  1     1.0000   4.067035   10.423349   25.809611
149  149  1     1.0000   14.982771   0.362491   11.756895
150  150  1     1.0000   14.982771   0.362491   25.809611
151  151  1     1.0000   14.982771   10.423349   11.756895
152  152  1     1.0000   14.982771   10.423349   25.809611
153  153  1     1.0000   4.360147   5.636535   11.657419
154  154  1     1.0000   4.360147   5.636535   25.710136
155  155  1     1.0000   4.360147   15.697393   11.657419
156  156  1     1.0000   4.360147   15.697393   25.710136
157  157  1     1.0000   15.275884   5.636535   11.657419
158  158  1     1.0000   15.275884   5.636535   25.710136
159  159  1     1.0000   15.275884   15.697393   11.657419
160  160  1     1.0000   15.275884   15.697393   25.710136
161  161  1     1.0000   6.800282   0.517543   11.534923
162  162  1     1.0000   6.800282   0.517543   25.587640
163  163  1     1.0000   6.800282   10.578401   11.534923
164  164  1     1.0000   6.800282   10.578401   25.587640
165  165  1     1.0000   17.716018   0.517543   11.534923
166  166  1     1.0000   17.716018   0.517543   25.587640
167  167  1     1.0000   17.716018   10.578401   11.534923
168  168  1     1.0000   17.716018   10.578401   25.587640
169  169  1     1.0000   7.034185   5.151731   11.780469
170  170  1     1.0000   7.034185   5.151731   25.833186
171  171  1     1.0000   7.034185   15.212589   11.780469
172  172  1     1.0000   7.034185   15.212589   25.833186
173  173  1     1.0000   17.949921   5.151731   11.780469
174  174  1     1.0000   17.949921   5.151731   25.833186
175  175  1     1.0000   17.949921   15.212589   11.780469
176  176  1     1.0000   17.949921   15.212589   25.833186
177  177  1     1.0000   9.494010   0.132438   11.735660
178  178  1     1.0000   9.494010   0.132438   25.788377
179  179  1     1.0000   9.494010   10.193296   11.735660
180  180  1     1.0000   9.494010   10.193296   25.788377
181  181  1     1.0000   20.409746   0.132438   11.735660
182  182  1     1.0000   20.409746   0.132438   25.788377
183  183  1     1.0000   20.409746   10.193296   11.735660
184  184  1     1.0000   20.409746   10.193296   25.788377
185  185  1     1.0000   9.612695   5.359202   11.568058
186  186  1     1.0000   9.612695   5.359202   25.620775
187  187  1     1.0000   9.612695   15.420060   11.568058
188  188  1     1.0000   9.612695   15.420060   25.620775
189  189  1     1.0000   20.528431   5.359202   11.568058
190  190  1     1.0000   20.528431   5.359202   25.620775
191  191  1     1.0000   20.528431   15.420060   11.568058
192  192  1     1.0000   20.528431   15.420060   25.620775
193  193  1     1.0000   0.123928   3.110363   11.770092
194  194  1     1.0000   0.123928   3.110363   25.822809
195  195  1     1.0000   0.123928   13.171221   11.770092
196  196  1     1.0000   0.123928   13.171221   25.822809
197  197  1     1.0000   11.039664   3.110363   11.770092
198  198  1     1.0000   11.039664   3.110363   25.822809
199  199  1     1.0000   11.039664   13.171221   11.770092
200  200  1     1.0000   11.039664   13.171221   25.822809
201  201  1     1.0000   0.083925   7.953720   11.711456
202  202  1     1.0000   0.083925   7.953720   25.764173
203  203  1     1.0000   0.083925   18.014578   11.711456
204  204  1     1.0000   0.083925   18.014578   25.764173
205  205  1     1.0000   10.999662   7.953720   11.711456
206  206  1     1.0000   10.999662   7.953720   25.764173
207  207  1     1.0000   10.999662   18.014578   11.711456
208  208  1     1.0000   10.999662   18.014578   25.764173
209  209  1     1.0000   2.660004   3.188361   11.671077
210  210  1     1.0000   2.660004   3.188361   25.723794
211  211  1     1.0000   2.660004   13.249219   11.671077
212  212  1     1.0000   2.660004   13.249219   25.723794
213  213  1     1.0000   13.575740   3.188361   11.671077
214  214  1     1.0000   13.575740   3.188361   25.723794
215  215  1     1.0000   13.575740   13.249219   11.671077
216  216  1     1.0000   13.575740   13.249219   25.723794
217  217  1     1.0000   2.677370   8.272319   11.787346
218  218  1     1.0000   2.677370   8.272319   25.840062
219  219  1     1.0000   2.677370   18.333176   11.787346
220  220  1     1.0000   2.677370   18.333176   25.840062
221  221  1     1.0000   13.593107   8.272319   11.787346
222  222  1     1.0000   13.593107   8.272319   25.840062
223  223  1     1.0000   13.593107   18.333176   11.787346
224  224  1     1.0000   13.593107   18.333176   25.840062
225  225  1     1.0000   5.307398   2.529281   11.596925
226  226  1     1.0000   5.307398   2.529281   25.649642
227  227  1     1.0000   5.307398   12.590139   11.596925
228  228  1     1.0000   5.307398   12.590139   25.649642
229  229  1     1.0000   16.223134   2.529281   11.596925
230  230  1     1.0000   16.223134   2.529281   25.649642
231  231  1     1.0000   16.223134   12.590139   11.596925
232  232  1     1.0000   16.223134   12.590139   25.649642
233  233  1     1.0000   5.240310   8.093517   11.663530
234  234  1     1.0000   5.240310   8.093517   25.716246
235  235  1     1.0000   5.240310   18.154374   11.663530
236  236  1     1.0000   5.240310   18.154374   25.716246
237  237  1     1.0000   16.156046   8.093517   11.663530
238  238  1     1.0000   16.156046   8.093517   25.716246
239  239  1     1.0000   16.156046   18.154374   11.663530
240  240  1     1.0000   16.156046   18.154374   25.716246
241  241  1     1.0000   8.406409   2.823044   11.688588
242  242  1     1.0000   8.406409   2.823044   25.741305
243  243  1     1.0000   8.406409   12.883902   11.688588
244  244  1     1.0000   8.406409   12.883902   25.741305
245  245  1     1.0000   19.322146   2.823044   11.688588
246  246  1     1.0000   19.322146   2.823044   25.741305
247  247  1     1.0000   19.322146   12.883902   11.688588
248  248  1     1.0000   19.322146   12.883902   25.741305
249  249  1     1.0000   8.181329   7.648709   11.798184
250  250  1     1.0000   8.181329   7.648709   25.850901
251  251  1     1.0000   8.181329   17.709566   11.798184
252  252  1     1.0000   8.181329   17.709566   25.850901
253  253  1     1.0000   19.097066   7.648709   11.798184
254  254  1     1.0000   19.097066   7.648709   25.850901
255  255  1     1.0000   19.097066   17.709566   11.798184
256  256  1     1.0000   19.097066   17.709566   25.850901
257  257  1     1.0000   10.901486   4.585814   7.081617
258  258  1     1.0000   10.901486   4.585814   21.134334
259  259  1     1.0000   10.901486   14.646672   7.081617
260  260  1     1.0000   10.901486   14.646672   21.134334
261  261  1     1.0000   21.817222   4.585814   7.081617
262  262  1     1.0000   21.817222   4.585814   21.134334
263  263  1     1.0000   21.817222   14.646672   7.081617
264  264  1     1.0000   21.817222   14.646672   21.134334
265  265  1     1.0000   10.897001   9.900835   7.027180
266  266  1     1.0000   10.897001   9.900835   21.079897
267  267  1     1.0000   10.897001   19.961693   7.027180
268  268  1     1.0000   10.897001   19.961693   21.079897
269  269  1     1.0000   21.812737   9.900835   7.027180
270  270  1     1.0000   21.812737   9.900835   21.079897
271  271  1     1.0000   21.812737   19.961693   7.027180
272  272  1     1.0000   21.812737   19.961693   21.079897
273  273  1     1.0000   2.540324   4.848613   7.009771
274  274  1     1.0000   2.540324   4.848613   21.062487
275  275  1     1.0000   2.540324   14.909471   7.009771
276  276  1     1.0000   2.540324   14.909471   21.062487
277  277  1     1.0000   13.456060   4.848613   7.009771
278  278  1     1.0000   13.456060   4.848613   21.062487
279  279  1     1.0000   13.456060   14.909471   7.009771
280  280  1     1.0000   13.456060   14.909471   21.062487
281  281  1     1.0000   2.714754   9.447868   7.212061
282  282  1     1.0000   2.714754   9.447868   21.264778
283  283  1     1.0000   2.714754   19.508726   7.212061
284  284  1     1.0000   2.714754   19.508726   21.264778
285  285  1     1.0000   13.630490   9.447868   7.212061
286  286  1     1.0000   13.630490   9.447868   21.264778
287  287  1     1.0000   13.630490   19.508726   7.212061
288  288  1     1.0000   13.630490   19.508726   21.264778
289  289  1     1.0000   5.232519   4.889856   7.064860
290  290  1     1.0000   5.232519   4.889856   21.117577
291  291  1     1.0000   5.232519   14.950714   7.064860
292  292  1     1.0000   5.232519   14.950714   21.117577
293  293  1     1.0000   16.148255   4.889856   7.064860
294  294  1     1.0000   16.148255   4.889856   21.117577
295  295  1     1.0000   16.148255   14.950714   7.064860
296  296  1     1.0000   16.148255   14.950714   21.117577
297  297  1     1.0000   5.251643   9.765575   6.966893
298  298  1     1.0000   5.251643   9.765575   21.019610
299  299  1     1.0000   5.251643   19.826433   6.966893
300  300  1     1.0000   5.251643   19.826433   21.019610
301  301  1     1.0000   16.167380   9.765575   6.966893
302  302  1     1.0000   16.167380   9.765575   21.019610
303  303  1     1.0000   16.167380   19.826433   6.966893
304  304  1     1.0000   16.167380   19.826433   21.019610
305  305  1     1.0000   8.168921   4.900091   7.224827
306  306  1     1.0000   8.168921   4.900091   21.277544
307  307  1     1.0000   8.168921   14.960949   7.224827
308  308  1     1.0000   8.168921   14.960949   21.277544
309  309  1     1.0000   19.084657   4.900091   7.224827
310  310  1     1.0000   19.084657   4.900091   21.277544
311  311  1     1.0000   19.084657   14.960949   7.224827
312  312  1     1.0000   19.084657   14.960949   21.277544
313  313  1     1.0000   8.164040   10.005768   7.256812
314  314  1     1.0000   8.164040   10.005768   21.309529
315  315  1     1.0000   8.164040   20.066626   7.256812
316  316  1     1.0000   8.164040   20.066626   21.309529
317  317  1     1.0000   19.079777   10.005768   7.256812
318  318  1     1.0000   19.079777   10.005768   21.309529
319  319  1     1.0000   19.079777   20.066626   7.256812
320  320  1     1.0000   19.079777   20.066626   21.309529
321  321  1     1.0000   1.258423   2.027017   7.084001
322  322  1     1.0000   1.258423   2.027017   21.136718
323  323  1     1.0000   1.258423   12.087875   7.084001
324  324  1     1.0000   1.258423   12.087875   21.136718
325  325  1     1.0000   12.174159   2.027017   7.084001
326  326  1     1.0000   12.174159   2.027017   21.136718
327  327  1     1.0000   12.174159   12.087875   7.084001
328  328  1     1.0000   12.174159   12.087875   21.136718
329  329  1     1.0000   1.394812   7.348465   7.073739
330  330  1     1.0000   1.394812   7.348465   21.126456
331  331  1     1.0000   1.394812   17.409323   7.073739
332  332  1     1.0000   1.394812   17.409323   21.126456
333  333  1     1.0000   12.310548   7.348465   7.073739
334  334  1     1.0000   12.310548   7.348465   21.126456
335  335  1     1.0000   12.310548   17.409323   7.073739
336  336  1     1.0000   12.310548   17.409323   21.126456
337  337  1     1.0000   4.050876   2.396836   7.106536
338  338  1     1.0000   4.050876   2.396836   21.159253
339  339  1     1.0000   4.050876   12.457694   7.106536
340  340  1     1.0000   4.050876   12.457694   21.159253
341  341  1     1.0000   14.966612   2.396836   7.106536
342  342  1     1.0000   14.966612   2.396836   21.159253
343  343  1     1.0000   14.966612   12.457694   7.106536
344  344  1     1.0000   14.966612   12.457694   21.159253
345  345  1     1.0000   4.098002   7.181809   7.257491
346  346  1     1.0000   4.098002   7.181809   21.310208
347  347  1     1.0000   4.098002   17.242667   7.257491
348  348  1     1.0000   4.098002   17.242667   21.310208
349  349  1     1.0000   15.013738   7.181809   7.257491
350  350  1     1.0000   15.013738   7.181809   21.310208
351  351  1     1.0000   15.013738   17.242667   7.257491
352  352  1     1.0000   15.013738   17.242667   21.310208
353  353  1     1.0000   6.666209   2.284628   7.139836
354  354  1     1.0000   6.666209   2.284628   21.192553
355  355  1     1.0000   6.666209   12.345486   7.139836
356  356  1     1.0000   6.666209   12.345486   21.192553
357  357  1     1.0000   17.581945   2.284628   7.139836
358  358  1     1.0000   17.581945   2.284628   21.192553
359  359  1     1.0000   17.581945   12.345486   7.139836
360  360  1     1.0000   17.581945   12.345486   21.192553
361  361  1     1.0000   6.797909   7.730573   6.903693
362  362  1     1.0000   6.797909   7.730573   20.956410
363  363  1     1.0000   6.797909   17.791430   6.903693
364  364  1     1.0000   6.797909   17.791430   20.956410
365  365  1     1.0000   17.713645   7.730573   6.903693
366  366  1     1.0000   17.713645   7.730573   20.956410
367  367  1     1.0000   17.713645   17.791430   6.903693
368  368  1     1.0000   17.713645   17.791430   20.956410
369  369  1     1.0000   9.277747   2.365543   6.912508
370  370  1     1.0000   9.277747   2.365543   20.965225
371  371  1     1.0000   9.277747   12.426401   6.912508
372  372  1     1.0000   9.277747   12.426401   20.965225
373  373  1     1.0000   20.193483   2.365543   6.912508
374  374  1     1.0000   20.193483   2.365543   20.965225
375  375  1     1.0000   20.193483   12.426401   6.912508
376  376  1     1.0000   20.193483   12.426401   20.965225
377  377  1     1.0000   9.292691   7.087613   6.985829
378  378  1     1.0000   9.292691   7.087613   21.038546
379  379  1     1.0000   9.292691   17.148471   6.985829
380  380  1     1.0000   9.292691   17.148471   21.038546
381  381  1     1.0000   20.208427   7.087613   6.985829
382  382  1     1.0000   20.208427   7.087613   21.038546
383  383  1     1.0000   20.208427   17.148471   6.985829
384  384  1     1.0000   20.208427   17.148471   21.038546
385  385  2     3.0000   0.282646   4.597720   0.128217
386  386  2     3.0000   0.282646   4.597720   14.180934
387  387  2     3.0000   0.282646   14.658578   0.128217
388  388  2     3.0000   0.282646   14.658578   14.180934
389  389  2     3.0000   11.198382   4.597720   0.128217
390  390  2     3.0000   11.198382   4.597720   14.180934
391  391  2     3.0000   11.198382   14.658578   0.128217
392  392  2     3.0000   11.198382   14.658578   14.180934
393  393  2     3.0000   0.266419   9.556817   0.065387
394  394  2     3.0000   0.266419   9.556817   14.118104
395  395  2     3.0000   0.266419   19.617675   0.065387
396  396  2     3.0000   0.266419   19.617675   14.118104
397  397  2     3.0000   11.182155   9.556817   0.065387
398  398  2     3.0000   11.182155   9.556817   14.118104
399  399  2     3.0000   11.182155   19.617675   0.065387
400  400  2     3.0000   11.182155   19.617675   14.118104
401  401  2     3.0000   2.913334   4.590903   13.916785
402  402  2     3.0000   2.913334   4.590903   27.969502
403  403  2     3.0000   2.913334   14.651761   13.916785
404  404  2     3.0000   2.913334   14.651761   27.969502
405  405  2     3.0000   13.829070   4.590903   13.916785
406  406  2     3.0000   13.829070   4.590903   27.969502
407  407  2     3.0000   13.829070   14.651761   13.916785
408  408  2     3.0000   13.829070   14.651761   27.969502
409  409  2     3.0000   2.871456   9.615611   0.070026
410  410  2     3.0000   2.871456   9.615611   14.122743
411  411  2     3.0000   2.871456   19.676469   0.070026
412  412  2     3.0000   2.871456   19.676469   14.122743
413  413  2     3.0000   13.787192   9.615611   0.070026
414  414  2     3.0000   13.787192   9.615611   14.122743
415  415  2     3.0000   13.787192   19.676469   0.070026
416  416  2     3.0000   13.787192   19.676469   14.122743
417  417  2     3.0000   5.637799   4.669857   13.957989
418  418  2     3.0000   5.637799   4.669857   28.010706
419  419  2     3.0000   5.637799   14.730715   13.957989
420  420  2     3.0000   5.637799   14.730715   28.010706
421  421  2     3.0000   16.553536   4.669857   13.957989
422  422  2     3.0000   16.553536   4.669857   28.010706
423  423  2     3.0000   16.553536   14.730715   13.957989
424  424  2     3.0000   16.553536   14.730715   28.010706
425  425  2     3.0000   5.615835   9.802735   0.004091
426  426  2     3.0000   5.615835   9.802735   14.056808
427  427  2     3.0000   5.615835   19.863593   0.004091
428  428  2     3.0000   5.615835   19.863593   14.056808
429  429  2     3.0000   16.531571   9.802735   0.004091
430  430  2     3.0000   16.531571   9.802735   14.056808
431  431  2     3.0000   16.531571   19.863593   0.004091
432  432  2     3.0000   16.531571   19.863593   14.056808
433  433  2     3.0000   8.408605   4.650143   14.006945
434  434  2     3.0000   8.408605   4.650143   28.059661
435  435  2     3.0000   8.408605   14.711001   14.006945
436  436  2     3.0000   8.408605   14.711001   28.059661
437  437  2     3.0000   19.324341   4.650143   14.006945
438  438  2     3.0000   19.324341   4.650143   28.059661
439  439  2     3.0000   19.324341   14.711001   14.006945
440  440  2     3.0000   19.324341   14.711001   28.059661
441  441  2     3.0000   8.305013   9.585769   14.026999
442  442  2     3.0000   8.305013   9.585769   28.079716
443  443  2     3.0000   8.305013   19.646627   14.026999
444  444  2     3.0000   8.305013   19.646627   28.079716
445  445  2     3.0000   19.220749   9.585769   14.026999
446  446  2     3.0000   19.220749   9.585769   28.079716
447  447  2     3.0000   19.220749   19.646627   14.026999
448  448  2     3.0000   19.220749   19.646627   28.079716
449  449  2     3.0000   1.444727   2.091326   13.942198
450  450  2     3.0000   1.444727   2.091326   27.994915
451  451  2     3.0000   1.444727   12.152184   13.942198
452  452  2     3.0000   1.444727   12.152184   27.994915
453  453  2     3.0000   12.360463   2.091326   13.942198
454  454  2     3.0000   12.360463   2.091326   27.994915
455  455  2     3.0000   12.360463   12.152184   13.942198
456  456  2     3.0000   12.360463   12.152184   27.994915
457  457  2     3.0000   1.420181   7.082228   0.158088
458  458  2     3.0000   1.420181   7.082228   14.210805
459  459  2     3.0000   1.420181   17.143086   0.158088
460  460  2     3.0000   1.420181   17.143086   14.210805
461  461  2     3.0000   12.335917   7.082228   0.158088
462  462  2     3.0000   12.335917   7.082228   14.210805
463  463  2     3.0000   12.335917   17.143086   0.158088
464  464  2     3.0000   12.335917   17.143086   14.210805
465  465  2     3.0000   4.120661   2.034488   14.027023
466  466  2     3.0000   4.120661   2.034488   28.079740
467  467  2     3.0000   4.120661   12.095346   14.027023
468  468  2     3.0000   4.120661   12.095346   28.079740
469  469  2     3.0000   15.036397   2.034488   14.027023
470  470  2     3.0000   15.036397   2.034488   28.079740
471  471  2     3.0000   15.036397   12.095346   14.027023
472  472  2     3.0000   15.036397   12.095346   28.079740
473  473  2     3.0000   4.197612   7.242075   14.006286
474  474  2     3.0000   4.197612   7.242075   28.059002
475  475  2     3.0000   4.197612   17.302933   14.006286
476  476  2     3.0000   4.197612   17.302933   28.059002
477  477  2     3.0000   15.113348   7.242075   14.006286
478  478  2     3.0000   15.113348   7.242075   28.059002
479  479  2     3.0000   15.113348   17.302933   14.006286
480  480  2     3.0000   15.113348   17.302933   28.059002
481  481  2     3.0000   6.966349   2.116201   13.971819
482  482  2     3.0000   6.966349   2.116201   28.024536
483  483  2     3.0000   6.966349   12.177058   13.971819
484  484  2     3.0000   6.966349   12.177058   28.024536
485  485  2     3.0000   17.882085   2.116201   13.971819
486  486  2     3.0000   17.882085   2.116201   28.024536
487  487  2     3.0000   17.882085   12.177058   13.971819
488  488  2     3.0000   17.882085   12.177058   28.024536
489  489  2     3.0000   6.840496   7.114114   13.924800
490  490  2     3.0000   6.840496   7.114114   27.977517
491  491  2     3.0000   6.840496   17.174971   13.924800
492  492  2     3.0000   6.840496   17.174971   27.977517
493  493  2     3.0000   17.756232   7.114114   13.924800
494  494  2     3.0000   17.756232   7.114114   27.977517
495  495  2     3.0000   17.756232   17.174971   13.924800
496  496  2     3.0000   17.756232   17.174971   27.977517
497  497  2     3.0000   9.663530   2.004694   0.000351
498  498  2     3.0000   9.663530   2.004694   14.053068
499  499  2     3.0000   9.663530   12.065552   0.000351
500  500  2     3.0000   9.663530   12.065552   14.053068
501  501  2     3.0000   20.579267   2.004694   0.000351
502  502  2     3.0000   20.579267   2.004694   14.053068
503  503  2     3.0000   20.579267   12.065552   0.000351
504  504  2     3.0000   20.579267   12.065552   14.053068
505  505  2     3.0000   9.616133   7.128226   0.027389
506  506  2     3.0000   9.616133   7.128226   14.080105
507  507  2     3.0000   9.616133   17.189084   0.027389
508  508  2     3.0000   9.616133   17.189084   14.080105
509  509  2     3.0000   20.531869   7.128226   0.027389
510  510  2     3.0000   20.531869   7.128226   14.080105
511  511  2     3.0000   20.531869   17.189084   0.027389
512  512  2     3.0000   20.531869   17.189084   14.080105
513  513  2     3.0000   1.364793   0.476747   4.806328
514  514  2     3.0000   1.364793   0.476747   18.859045
515  515  2     3.0000   1.364793   10.537605   4.806328
516  516  2     3.0000   1.364793   10.537605   18.859045