C:\Users\Computer\Desktop\To_Be_Copied\R

180   atoms
60   bonds

4   atom types
1   bond types

0.0 5.701284 xlo xhi
0.0 12.141087 ylo yhi
0.0 13.911115 zlo zhi

Masses

1   6.94100 # Li 
2  58.69340 # Ni 
3  14.39946 # O core
4   1.59994 # O shell

Atoms

  1    1    1    1.000  -1.392659   12.353521   13.900686
  2    2    1    1.000   4.315252   2.639561   13.902764
  3    3    1    1.000  -2.824431   4.828940   0.020843
  4    4    1    1.000   1.464351   7.472875   13.878906
  5    5    1    1.000  -0.001539   9.722883   0.015179
  6    6    1    1.000   2.889570   0.259856   13.890251
  7    7    1    1.000   1.537607   2.468917   0.026340
  8    8    1    1.000   0.059156   4.811773   0.012627
  9    9    1    1.000  -1.395318   7.487645   13.899293
 10   10    1    1.000  -2.859056   9.692800   0.001597
 11   11    1    1.000   1.455580   0.911039   4.648476
 12   12    1    1.000   0.012955   3.292164   4.623660
 13   13    1    1.000  -1.368312   5.688208   4.632634
 14   14    1    1.000  -2.857925   8.168015   4.640001
 15   15    1    1.000  -4.281429   10.646430   4.628318
 16   16    1    1.000   4.337742   0.863469   4.620663
 17   17    1    1.000   2.888931   3.307438   4.641099
 18   18    1    1.000   1.363842   5.693112   4.645684
 19   19    1    1.000   0.004095   8.175391   4.642612
 20   20    1    1.000  -1.335829   10.642517   4.644776
 21   21    1    1.000   0.011267   1.751699   9.267715
 22   22    1    1.000  -1.382109   4.193929   9.298228
 23   23    1    1.000  -2.859340   6.649991   9.293148
 24   24    1    1.000  -4.277012   9.041642   9.307390
 25   25    1    1.000  -5.707883   11.506882   9.227818
 26   26    1    1.000   2.841191   1.802691   9.276359
 27   27    1    1.000   1.450498   4.192212   9.277196
 28   28    1    1.000   0.026072   6.590293   9.284257
 29   29    1    1.000  -1.398495   9.064652   9.272722
 30   30    1    1.000  -2.818038   11.494004   9.244590
 31   31    2    3.000   0.094188   1.656766   2.308406
 32   32    2    3.000   1.408924   7.374310   6.972926
 33   33    2    3.000  -2.822073   8.246171   11.615260
 34   34    2    3.000  -5.657650   11.384556   2.340185
 35   35    2    3.000  -4.308585   8.966727   2.300993
 36   36    2    3.000   0.044313   8.258228   11.597383
 37   37    2    3.000   4.268244   1.015086   11.574421
 38   38    2    3.000   1.426906   1.022945   11.581415
 39   39    2    3.000  -1.440013   7.363401   6.970414
 40   40    2    3.000   0.058139   3.414380   11.588630
 41   41    2    3.000   1.452114   2.546239   6.956891
 42   42    2    3.000   2.895274   3.428569   11.624895
 43   43    2    3.000  -1.349641   5.820843   11.641617
 44   44    2    3.000  -2.808187   4.957330   6.989422
 45   45    2    3.000  -1.390121   4.057251   2.320501
 46   46    2    3.000   1.471020   4.071525   2.333828
 47   47    2    3.000  -2.815918   11.380116   2.304028
 48   48    2    3.000   2.843131   0.140281   6.933873
 49   49    2    3.000   0.037857   4.959097   6.944856
 50   50    2    3.000  -1.451167   8.970608   2.313847
 51   51    2    3.000  -1.384314   2.543978   6.941107
 52   52    2    3.000   0.022488   9.825611   6.953839
 53   53    2    3.000  -4.246611   10.711432   11.567954
 54   54    2    3.000  -0.017687   6.502606   2.334638
 55   55    2    3.000   5.695183   0.132573   6.927050
 56   56    2    3.000   1.473977   5.828657   11.616530
 57   57    2    3.000   2.945656   1.651085   2.314111
 58   58    2    3.000  -2.870200   6.524166   2.298987
 59   59    2    3.000  -2.816546   9.821804   6.971750
 60   60    2    3.000  -1.366387   10.717618   11.539272
 61   61    3    0.960   0.144136   0.102837   3.358391
 62   61    4   -2.960   0.144136   0.102837   3.358391
 63   62    3    0.960  -1.362637   2.461066   3.316751
 64   62    4   -2.960  -1.362637   2.461066   3.316751
 65   63    3    0.960   2.759551   4.965184   3.400237
 66   63    4   -2.960   2.759551   4.965184   3.400237
 67   64    3    0.960  -4.204809   7.396174   3.349716
 68   64    4   -2.960  -4.204809   7.396174   3.349716
 69   65    3    0.960  -5.717250   9.881837   3.452552
 70   65    4   -2.960  -5.717250   9.881837   3.452552
 71   66    3    0.960   3.019897   0.076636   3.364388
 72   66    4   -2.960   3.019897   0.076636   3.364388
 73   67    3    0.960   1.571159   2.494002   3.335164
 74   67    4   -2.960   1.571159   2.494002   3.335164
 75   68    3    0.960  -0.097546   4.816725   3.402337
 76   68    4   -2.960  -0.097546   4.816725   3.402337
 77   69    3    0.960  -1.542013   7.387022   3.354337
 78   69    4   -2.960  -1.542013   7.387022   3.354337
 79   70    3    0.960  -2.878427   9.743683   3.263534
 80   70    4   -2.960  -2.878427   9.743683   3.263534
 81   71    3    0.960   1.309776   0.995148   7.993895
 82   71    4   -2.960   1.309776   0.995148   7.993895
 83   72    3    0.960   0.157451   3.414382   7.996663
 84   72    4   -2.960   0.157451   3.414382   7.996663
 85   73    3    0.960  -1.521861   5.820750   8.028057
 86   73    4   -2.960  -1.521861   5.820750   8.028057
 87   74    3    0.960  -2.860507   8.348751   8.120880
 88   74    4   -2.960  -2.860507   8.348751   8.120880
 89   75    3    0.960  -4.158903   10.719680   7.989727
 90   75    4   -2.960  -4.158903   10.719680   7.989727
 91   76    3    0.960   4.253639   0.933161   7.909165
 92   76    4   -2.960   4.253639   0.933161   7.909165
 93   77    3    0.960   3.019580   3.391820   8.016723
 94   77    4   -2.960   3.019580   3.391820   8.016723
 95   78    3    0.960   1.333453   5.821715   7.999781
 96   78    4   -2.960   1.333453   5.821715   7.999781
 97   79    3    0.960  -0.017496   8.079491   7.960424
 98   79    4   -2.960  -0.017496   8.079491   7.960424
 99   80    3    0.960  -1.480627   10.689183   7.980486
100   80    4   -2.960  -1.480627   10.689183   7.980486
101   81    3    0.960  -0.014639   1.785344   12.553864
102   81    4   -2.960  -0.014639   1.785344   12.553864
103   82    3    0.960  -1.235571   4.256931   12.642121
104   82    4   -2.960  -1.235571   4.256931   12.642121
105   83    3    0.960  -2.899706   6.710912   12.640382
106   83    4   -2.960  -2.899706   6.710912   12.640382
107   84    3    0.960  -4.246532   8.988384   12.596488
108   84    4   -2.960  -4.246532   8.988384   12.596488
109   85    3    0.960  -5.748673   11.598335   12.611102
110   85    4   -2.960  -5.748673   11.598335   12.611102
111   86    3    0.960   2.859049   1.917634   12.714615
112   86    4   -2.960   2.859049   1.917634   12.714615
113   87    3    0.960   1.607678   4.260824   12.662341
114   87    4   -2.960   1.607678   4.260824   12.662341
115   88    3    0.960   0.041885   6.532732   12.660996
116   88    4   -2.960   0.041885   6.532732   12.660996
117   89    3    0.960  -1.259492   9.157301   12.650160
118   89    4   -2.960  -1.259492   9.157301   12.650160
119   90    3    0.960  -2.723890   11.553705   12.619994
120   90    4   -2.960  -2.723890   11.553705   12.619994
121   91    3    0.960  -1.428449   12.207475   10.431360
122   91    4   -2.960  -1.428449   12.207475   10.431360
123   92    3    0.960   4.187009   2.584860   10.552778
124   92    4   -2.960   4.187009   2.584860   10.552778
125   93    3    0.960  -2.767011   5.054672   10.625359
126   93    4   -2.960  -2.767011   5.054672   10.625359
127   94    3    0.960   1.339394   7.399087   10.553020
128   94    4   -2.960   1.339394   7.399087   10.553020
129   95    3    0.960  -0.045872   9.941159   10.442762
130   95    4   -2.960  -0.045872   9.941159   10.442762
131   96    3    0.960   2.854852   0.320917   10.576495
132   96    4   -2.960   2.854852   0.320917   10.576495
133   97    3    0.960   1.351358   2.563983   10.548599
134   97    4   -2.960   1.351358   2.563983   10.548599
135   98    3    0.960   0.160237   4.952953   10.559235
136   98    4   -2.960   0.160237   4.952953   10.559235
137   99    3    0.960  -1.394911   7.432185   10.655882
138   99    4   -2.960  -1.394911   7.432185   10.655882
139  100    3    0.960  -2.721211   9.813953   10.571305
140  100    4   -2.960  -2.721211   9.813953   10.571305
141  101    3    0.960   1.533667   0.822620   1.312291
142  101    4   -2.960   1.533667   0.822620   1.312291
143  102    3    0.960   0.177602   3.223653   1.267265
144  102    4   -2.960   0.177602   3.223653   1.267265
145  103    3    0.960  -1.524552   5.649908   1.281271
146  103    4   -2.960  -1.524552   5.649908   1.281271
147  104    3    0.960  -2.870823   7.992513   1.158293
148  104    4   -2.960  -2.870823   7.992513   1.158293
149  105    3    0.960  -4.377970   10.521284   1.264810
150  105    4   -2.960  -4.377970   10.521284   1.264810
151  106    3    0.960   4.316752   0.813808   1.282397
152  106    4   -2.960   4.316752   0.813808   1.282397
153  107    3    0.960   3.023752   3.225995   1.275992
154  107    4   -2.960   3.023752   3.225995   1.275992
155  108    3    0.960   1.488829   5.634475   1.282926
156  108    4   -2.960   1.488829   5.634475   1.282926
157  109    3    0.960  -0.034465   8.252100   1.326115
158  109    4   -2.960  -0.034465   8.252100   1.326115
159  110    3    0.960  -1.524276   10.526098   1.267506
160  110    4   -2.960  -1.524276   10.526098   1.267506
161  111    3    0.960  -0.091376   1.707496   5.884393
162  111    4   -2.960  -0.091376   1.707496   5.884393
163  112    3    0.960  -1.279689   4.096910   5.925605
164  112    4   -2.960  -1.279689   4.096910   5.925605
165  113    3    0.960  -2.873576   6.587032   6.014876
166  113    4   -2.960  -2.873576   6.587032   6.014876
167  114    3    0.960  -4.170088   8.957979   5.922251
168  114    4   -2.960  -4.170088   8.957979   5.922251
169  115    3    0.960  -5.662308   11.552695   5.935119
170  115    4   -2.960  -5.662308   11.552695   5.935119
171  116    3    0.960   2.756825   1.693191   5.917310
172  116    4   -2.960   2.756825   1.693191   5.917310
173  117    3    0.960   1.612661   4.108157   5.931619
174  117    4   -2.960   1.612661   4.108157   5.931619
175  118    3    0.960  -0.017695   6.452939   5.832678
176  118    4   -2.960  -0.017695   6.452939   5.832678
177  119    3    0.960  -1.495723   8.928655   5.923753
178  119    4   -2.960  -1.495723   8.928655   5.923753
179  120    3    0.960  -2.726602   11.357460   5.853482
180  120    4   -2.960  -2.726602   11.357460   5.853482

Bonds

   1    1   61   62
   2    1   63   64
   3    1   65   66
   4    1   67   68
   5    1   69   70
   6    1   71   72
   7    1   73   74
   8    1   75   76
   9    1   77   78
  10    1   79   80
  11    1   81   82
  12    1   83   84
  13    1   85   86
  14    1   87   88
  15    1   89   90
  16    1   91   92
  17    1   93   94
  18    1   95   96
  19    1   97   98
  20    1   99  100
  21    1  101  102
  22    1  103  104
  23    1  105  106
  24    1  107  108
  25    1  109  110
  26    1  111  112
  27    1  113  114
  28    1  115  116
  29    1  117  118
  30    1  119  120
  31    1  121  122
  32    1  123  124
  33    1  125  126
  34    1  127  128
  35    1  129  130
  36    1  131  132
  37    1  133  134
  38    1  135  136
  39    1  137  138
  40    1  139  140
  41    1  141  142
  42    1  143  144
  43    1  145  146
  44    1  147  148
  45    1  149  150
  46    1  151  152
  47    1  153  154
  48    1  155  156
  49    1  157  158
  50    1  159  160
  51    1  161  162
  52    1  163  164
  53    1  165  166
  54    1  167  168
  55    1  169  170
  56    1  171  172
  57    1  173  174
  58    1  175  176
  59    1  177  178
  60    1  179  180

