title

1536   atoms
3   atom types

0.0 21.831472 xlo xhi
0.0 20.121716 ylo yhi
0.0 28.105434 zlo zhi

0.00000 0.00000 0.00000 xy xz yz 

Masses

1   6.94100 # Li
2  58.69340 # Ni
3  15.99990 # O

Atoms

1    1    1     1.0000   2.738867   1.499009   2.329037
2    2    1     1.0000   2.738867   1.499009   16.381754
3    3    1     1.0000   2.738867   11.559867   2.329037
4    4    1     1.0000   2.738867   11.559867   16.381754
5    5    1     1.0000   13.654603   1.499009   2.329037
6    6    1     1.0000   13.654603   1.499009   16.381754
7    7    1     1.0000   13.654603   11.559867   2.329037
8    8    1     1.0000   13.654603   11.559867   16.381754
9    9    1     1.0000   2.627030   6.467691   2.183904
10   10   1     1.0000   2.627030   6.467691   16.236621
11   11   1     1.0000   2.627030   16.528548   2.183904
12   12   1     1.0000   2.627030   16.528548   16.236621
13   13   1     1.0000   13.542766   6.467691   2.183904
14   14   1     1.0000   13.542766   6.467691   16.236621
15   15   1     1.0000   13.542766   16.528548   2.183904
16   16   1     1.0000   13.542766   16.528548   16.236621
17   17   1     1.0000   5.463040   1.631262   2.271485
18   18   1     1.0000   5.463040   1.631262   16.324201
19   19   1     1.0000   5.463040   11.692119   2.271485
20   20   1     1.0000   5.463040   11.692119   16.324201
21   21   1     1.0000   16.378777   1.631262   2.271485
22   22   1     1.0000   16.378777   1.631262   16.324201
23   23   1     1.0000   16.378777   11.692119   2.271485
24   24   1     1.0000   16.378777   11.692119   16.324201
25   25   1     1.0000   5.597597   6.314546   2.427251
26   26   1     1.0000   5.597597   6.314546   16.479968
27   27   1     1.0000   5.597597   16.375404   2.427251
28   28   1     1.0000   5.597597   16.375404   16.479968
29   29   1     1.0000   16.513333   6.314546   2.427251
30   30   1     1.0000   16.513333   6.314546   16.479968
31   31   1     1.0000   16.513333   16.375404   2.427251
32   32   1     1.0000   16.513333   16.375404   16.479968
33   33   1     1.0000   7.941205   1.443425   2.342980
34   34   1     1.0000   7.941205   1.443425   16.395697
35   35   1     1.0000   7.941205   11.504283   2.342980
36   36   1     1.0000   7.941205   11.504283   16.395697
37   37   1     1.0000   18.856942   1.443425   2.342980
38   38   1     1.0000   18.856942   1.443425   16.395697
39   39   1     1.0000   18.856942   11.504283   2.342980
40   40   1     1.0000   18.856942   11.504283   16.395697
41   41   1     1.0000   8.241716   6.161617   2.660561
42   42   1     1.0000   8.241716   6.161617   16.713278
43   43   1     1.0000   8.241716   16.222474   2.660561
44   44   1     1.0000   8.241716   16.222474   16.713278
45   45   1     1.0000   19.157452   6.161617   2.660561
46   46   1     1.0000   19.157452   6.161617   16.713278
47   47   1     1.0000   19.157452   16.222474   2.660561
48   48   1     1.0000   19.157452   16.222474   16.713278
49   49   1     1.0000   10.848179   1.295341   2.532900
50   50   1     1.0000   10.848179   1.295341   16.585617
51   51   1     1.0000   10.848179   11.356199   2.532900
52   52   1     1.0000   10.848179   11.356199   16.585617
53   53   1     1.0000   21.763915   1.295341   2.532900
54   54   1     1.0000   21.763915   1.295341   16.585617
55   55   1     1.0000   21.763915   11.356199   2.532900
56   56   1     1.0000   21.763915   11.356199   16.585617
57   57   1     1.0000   10.601676   6.404091   2.449126
58   58   1     1.0000   10.601676   6.404091   16.501843
59   59   1     1.0000   10.601676   16.464949   2.449126
60   60   1     1.0000   10.601676   16.464949   16.501843
61   61   1     1.0000   21.517412   6.404091   2.449126
62   62   1     1.0000   21.517412   6.404091   16.501843
63   63   1     1.0000   21.517412   16.464949   2.449126
64   64   1     1.0000   21.517412   16.464949   16.501843
65   65   1     1.0000   1.229940   4.435003   2.394251
66   66   1     1.0000   1.229940   4.435003   16.446968
67   67   1     1.0000   1.229940   14.495861   2.394251
68   68   1     1.0000   1.229940   14.495861   16.446968
69   69   1     1.0000   12.145676   4.435003   2.394251
70   70   1     1.0000   12.145676   4.435003   16.446968
71   71   1     1.0000   12.145676   14.495861   2.394251
72   72   1     1.0000   12.145676   14.495861   16.446968
73   73   1     1.0000   1.586769   9.194030   2.400436
74   74   1     1.0000   1.586769   9.194030   16.453153
75   75   1     1.0000   1.586769   19.254888   2.400436
76   76   1     1.0000   1.586769   19.254888   16.453153
77   77   1     1.0000   12.502505   9.194030   2.400436
78   78   1     1.0000   12.502505   9.194030   16.453153
79   79   1     1.0000   12.502505   19.254888   2.400436
80   80   1     1.0000   12.502505   19.254888   16.453153
81   81   1     1.0000   3.964053   3.736777   2.372478
82   82   1     1.0000   3.964053   3.736777   16.425195
83   83   1     1.0000   3.964053   13.797635   2.372478
84   84   1     1.0000   3.964053   13.797635   16.425195
85   85   1     1.0000   14.879789   3.736777   2.372478
86   86   1     1.0000   14.879789   3.736777   16.425195
87   87   1     1.0000   14.879789   13.797635   2.372478
88   88   1     1.0000   14.879789   13.797635   16.425195
89   89   1     1.0000   4.367832   8.767428   2.375254
90   90   1     1.0000   4.367832   8.767428   16.427971
91   91   1     1.0000   4.367832   18.828286   2.375254
92   92   1     1.0000   4.367832   18.828286   16.427971
93   93   1     1.0000   15.283568   8.767428   2.375254
94   94   1     1.0000   15.283568   8.767428   16.427971
95   95   1     1.0000   15.283568   18.828286   2.375254
96   96   1     1.0000   15.283568   18.828286   16.427971
97   97   1     1.0000   6.869768   4.196761   2.643104
98   98   1     1.0000   6.869768   4.196761   16.695821
99   99   1     1.0000   6.869768   14.257619   2.643104
100  100  1     1.0000   6.869768   14.257619   16.695821
101  101  1     1.0000   17.785504   4.196761   2.643104
102  102  1     1.0000   17.785504   4.196761   16.695821
103  103  1     1.0000   17.785504   14.257619   2.643104
104  104  1     1.0000   17.785504   14.257619   16.695821
105  105  1     1.0000   6.591825   9.239871   2.116977
106  106  1     1.0000   6.591825   9.239871   16.169694
107  107  1     1.0000   6.591825   19.300729   2.116977
108  108  1     1.0000   6.591825   19.300729   16.169694
109  109  1     1.0000   17.507561   9.239871   2.116977
110  110  1     1.0000   17.507561   9.239871   16.169694
111  111  1     1.0000   17.507561   19.300729   2.116977
112  112  1     1.0000   17.507561   19.300729   16.169694
113  113  1     1.0000   9.725866   3.797009   2.395937
114  114  1     1.0000   9.725866   3.797009   16.448653
115  115  1     1.0000   9.725866   13.857866   2.395937
116  116  1     1.0000   9.725866   13.857866   16.448653
117  117  1     1.0000   20.641602   3.797009   2.395937
118  118  1     1.0000   20.641602   3.797009   16.448653
119  119  1     1.0000   20.641602   13.857866   2.395937
120  120  1     1.0000   20.641602   13.857866   16.448653
121  121  1     1.0000   9.586860   9.150538   2.382892
122  122  1     1.0000   9.586860   9.150538   16.435609
123  123  1     1.0000   9.586860   19.211396   2.382892
124  124  1     1.0000   9.586860   19.211396   16.435609
125  125  1     1.0000   20.502596   9.150538   2.382892
126  126  1     1.0000   20.502596   9.150538   16.435609
127  127  1     1.0000   20.502596   19.211396   2.382892
128  128  1     1.0000   20.502596   19.211396   16.435609
129  129  1     1.0000   1.169749   0.321164   11.899326
130  130  1     1.0000   1.169749   0.321164   25.952043
131  131  1     1.0000   1.169749   10.382021   11.899326
132  132  1     1.0000   1.169749   10.382021   25.952043
133  133  1     1.0000   12.085486   0.321164   11.899326
134  134  1     1.0000   12.085486   0.321164   25.952043
135  135  1     1.0000   12.085486   10.382021   11.899326
136  136  1     1.0000   12.085486   10.382021   25.952043
137  137  1     1.0000   1.486218   5.282635   11.724716
138  138  1     1.0000   1.486218   5.282635   25.777433
139  139  1     1.0000   1.486218   15.343493   11.724716
140  140  1     1.0000   1.486218   15.343493   25.777433
141  141  1     1.0000   12.401954   5.282635   11.724716
142  142  1     1.0000   12.401954   5.282635   25.777433
143  143  1     1.0000   12.401954   15.343493   11.724716
144  144  1     1.0000   12.401954   15.343493   25.777433
145  145  1     1.0000   4.227252   0.451610   11.558879
146  146  1     1.0000   4.227252   0.451610   25.611596
147  147  1     1.0000   4.227252   10.512467   11.558879
148  148  1     1.0000   4.227252   10.512467   25.611596
149  149  1     1.0000   15.142988   0.451610   11.558879
150  150  1     1.0000   15.142988   0.451610   25.611596
151  151  1     1.0000   15.142988   10.512467   11.558879
152  152  1     1.0000   15.142988   10.512467   25.611596
153  153  1     1.0000   3.915809   5.379141   11.814756
154  154  1     1.0000   3.915809   5.379141   25.867473
155  155  1     1.0000   3.915809   15.439999   11.814756
156  156  1     1.0000   3.915809   15.439999   25.867473
157  157  1     1.0000   14.831546   5.379141   11.814756
158  158  1     1.0000   14.831546   5.379141   25.867473
159  159  1     1.0000   14.831546   15.439999   11.814756
160  160  1     1.0000   14.831546   15.439999   25.867473
161  161  1     1.0000   6.981608   0.071317   11.680076
162  162  1     1.0000   6.981608   0.071317   25.732793
163  163  1     1.0000   6.981608   10.132174   11.680076
164  164  1     1.0000   6.981608   10.132174   25.732793
165  165  1     1.0000   17.897344   0.071317   11.680076
166  166  1     1.0000   17.897344   0.071317   25.732793
167  167  1     1.0000   17.897344   10.132174   11.680076
168  168  1     1.0000   17.897344   10.132174   25.732793
169  169  1     1.0000   6.641764   5.431147   11.768110
170  170  1     1.0000   6.641764   5.431147   25.820827
171  171  1     1.0000   6.641764   15.492004   11.768110
172  172  1     1.0000   6.641764   15.492004   25.820827
173  173  1     1.0000   17.557501   5.431147   11.768110
174  174  1     1.0000   17.557501   5.431147   25.820827
175  175  1     1.0000   17.557501   15.492004   11.768110
176  176  1     1.0000   17.557501   15.492004   25.820827
177  177  1     1.0000   9.398016   0.068969   11.847755
178  178  1     1.0000   9.398016   0.068969   25.900472
179  179  1     1.0000   9.398016   10.129827   11.847755
180  180  1     1.0000   9.398016   10.129827   25.900472
181  181  1     1.0000   20.313753   0.068969   11.847755
182  182  1     1.0000   20.313753   0.068969   25.900472
183  183  1     1.0000   20.313753   10.129827   11.847755
184  184  1     1.0000   20.313753   10.129827   25.900472
185  185  1     1.0000   9.471412   5.561615   11.400663
186  186  1     1.0000   9.471412   5.561615   25.453379
187  187  1     1.0000   9.471412   15.622473   11.400663
188  188  1     1.0000   9.471412   15.622473   25.453379
189  189  1     1.0000   20.387149   5.561615   11.400663
190  190  1     1.0000   20.387149   5.561615   25.453379
191  191  1     1.0000   20.387149   15.622473   11.400663
192  192  1     1.0000   20.387149   15.622473   25.453379
193  193  1     1.0000   0.099942   2.842043   11.645748
194  194  1     1.0000   0.099942   2.842043   25.698465
195  195  1     1.0000   0.099942   12.902900   11.645748
196  196  1     1.0000   0.099942   12.902900   25.698465
197  197  1     1.0000   11.015679   2.842043   11.645748
198  198  1     1.0000   11.015679   2.842043   25.698465
199  199  1     1.0000   11.015679   12.902900   11.645748
200  200  1     1.0000   11.015679   12.902900   25.698465
201  201  1     1.0000   10.850531   7.954679   12.042803
202  202  1     1.0000   10.850531   7.954679   26.095520
203  203  1     1.0000   10.850531   18.015536   12.042803
204  204  1     1.0000   10.850531   18.015536   26.095520
205  205  1     1.0000   21.766267   7.954679   12.042803
206  206  1     1.0000   21.766267   7.954679   26.095520
207  207  1     1.0000   21.766267   18.015536   12.042803
208  208  1     1.0000   21.766267   18.015536   26.095520
209  209  1     1.0000   2.807243   2.728104   11.932479
210  210  1     1.0000   2.807243   2.728104   25.985196
211  211  1     1.0000   2.807243   12.788962   11.932479
212  212  1     1.0000   2.807243   12.788962   25.985196
213  213  1     1.0000   13.722980   2.728104   11.932479
214  214  1     1.0000   13.722980   2.728104   25.985196
215  215  1     1.0000   13.722980   12.788962   11.932479
216  216  1     1.0000   13.722980   12.788962   25.985196
217  217  1     1.0000   2.838079   7.863216   11.601642
218  218  1     1.0000   2.838079   7.863216   25.654359
219  219  1     1.0000   2.838079   17.924074   11.601642
220  220  1     1.0000   2.838079   17.924074   25.654359
221  221  1     1.0000   13.753816   7.863216   11.601642
222  222  1     1.0000   13.753816   7.863216   25.654359
223  223  1     1.0000   13.753816   17.924074   11.601642
224  224  1     1.0000   13.753816   17.924074   25.654359
225  225  1     1.0000   5.669059   2.827815   11.829338
226  226  1     1.0000   5.669059   2.827815   25.882055
227  227  1     1.0000   5.669059   12.888672   11.829338
228  228  1     1.0000   5.669059   12.888672   25.882055
229  229  1     1.0000   16.584795   2.827815   11.829338
230  230  1     1.0000   16.584795   2.827815   25.882055
231  231  1     1.0000   16.584795   12.888672   11.829338
232  232  1     1.0000   16.584795   12.888672   25.882055
233  233  1     1.0000   5.377287   8.119944   11.438166
234  234  1     1.0000   5.377287   8.119944   25.490883
235  235  1     1.0000   5.377287   18.180802   11.438166
236  236  1     1.0000   5.377287   18.180802   25.490883
237  237  1     1.0000   16.293023   8.119944   11.438166
238  238  1     1.0000   16.293023   8.119944   25.490883
239  239  1     1.0000   16.293023   18.180802   11.438166
240  240  1     1.0000   16.293023   18.180802   25.490883
241  241  1     1.0000   8.068773   2.763845   11.920409
242  242  1     1.0000   8.068773   2.763845   25.973126
243  243  1     1.0000   8.068773   12.824703   11.920409
244  244  1     1.0000   8.068773   12.824703   25.973126
245  245  1     1.0000   18.984509   2.763845   11.920409
246  246  1     1.0000   18.984509   2.763845   25.973126
247  247  1     1.0000   18.984509   12.824703   11.920409
248  248  1     1.0000   18.984509   12.824703   25.973126
249  249  1     1.0000   8.076992   8.124385   11.473815
250  250  1     1.0000   8.076992   8.124385   25.526532
251  251  1     1.0000   8.076992   18.185243   11.473815
252  252  1     1.0000   8.076992   18.185243   25.526532
253  253  1     1.0000   18.992728   8.124385   11.473815
254  254  1     1.0000   18.992728   8.124385   25.526532
255  255  1     1.0000   18.992728   18.185243   11.473815
256  256  1     1.0000   18.992728   18.185243   25.526532
257  257  1     1.0000   0.106688   4.608382   7.090828
258  258  1     1.0000   0.106688   4.608382   21.143545
259  259  1     1.0000   0.106688   14.669239   7.090828
260  260  1     1.0000   0.106688   14.669239   21.143545
261  261  1     1.0000   11.022425   4.608382   7.090828
262  262  1     1.0000   11.022425   4.608382   21.143545
263  263  1     1.0000   11.022425   14.669239   7.090828
264  264  1     1.0000   11.022425   14.669239   21.143545
265  265  1     1.0000   0.250840   9.663705   7.062446
266  266  1     1.0000   0.250840   9.663705   21.115163
267  267  1     1.0000   0.250840   19.724563   7.062446
268  268  1     1.0000   0.250840   19.724563   21.115163
269  269  1     1.0000   11.166576   9.663705   7.062446
270  270  1     1.0000   11.166576   9.663705   21.115163
271  271  1     1.0000   11.166576   19.724563   7.062446
272  272  1     1.0000   11.166576   19.724563   21.115163
273  273  1     1.0000   2.647622   4.402891   6.886956
274  274  1     1.0000   2.647622   4.402891   20.939673
275  275  1     1.0000   2.647622   14.463749   6.886956
276  276  1     1.0000   2.647622   14.463749   20.939673
277  277  1     1.0000   13.563358   4.402891   6.886956
278  278  1     1.0000   13.563358   4.402891   20.939673
279  279  1     1.0000   13.563358   14.463749   6.886956
280  280  1     1.0000   13.563358   14.463749   20.939673
281  281  1     1.0000   2.805662   9.571907   7.060899
282  282  1     1.0000   2.805662   9.571907   21.113616
283  283  1     1.0000   2.805662   19.632764   7.060899
284  284  1     1.0000   2.805662   19.632764   21.113616
285  285  1     1.0000   13.721398   9.571907   7.060899
286  286  1     1.0000   13.721398   9.571907   21.113616
287  287  1     1.0000   13.721398   19.632764   7.060899
288  288  1     1.0000   13.721398   19.632764   21.113616
289  289  1     1.0000   5.265378   4.628952   7.232825
290  290  1     1.0000   5.265378   4.628952   21.285542
291  291  1     1.0000   5.265378   14.689809   7.232825
292  292  1     1.0000   5.265378   14.689809   21.285542
293  293  1     1.0000   16.181115   4.628952   7.232825
294  294  1     1.0000   16.181115   4.628952   21.285542
295  295  1     1.0000   16.181115   14.689809   7.232825
296  296  1     1.0000   16.181115   14.689809   21.285542
297  297  1     1.0000   5.587597   9.799383   7.076212
298  298  1     1.0000   5.587597   9.799383   21.128929
299  299  1     1.0000   5.587597   19.860240   7.076212
300  300  1     1.0000   5.587597   19.860240   21.128929
301  301  1     1.0000   16.503333   9.799383   7.076212
302  302  1     1.0000   16.503333   9.799383   21.128929
303  303  1     1.0000   16.503333   19.860240   7.076212
304  304  1     1.0000   16.503333   19.860240   21.128929
305  305  1     1.0000   8.365720   4.628809   7.125102
306  306  1     1.0000   8.365720   4.628809   21.177818
307  307  1     1.0000   8.365720   14.689666   7.125102
308  308  1     1.0000   8.365720   14.689666   21.177818
309  309  1     1.0000   19.281456   4.628809   7.125102
310  310  1     1.0000   19.281456   4.628809   21.177818
311  311  1     1.0000   19.281456   14.689666   7.125102
312  312  1     1.0000   19.281456   14.689666   21.177818
313  313  1     1.0000   8.087083   9.868176   6.849310
314  314  1     1.0000   8.087083   9.868176   20.902027
315  315  1     1.0000   8.087083   19.929034   6.849310
316  316  1     1.0000   8.087083   19.929034   20.902027
317  317  1     1.0000   19.002819   9.868176   6.849310
318  318  1     1.0000   19.002819   9.868176   20.902027
319  319  1     1.0000   19.002819   19.929034   6.849310
320  320  1     1.0000   19.002819   19.929034   20.902027
321  321  1     1.0000   1.574226   1.982332   7.030904
322  322  1     1.0000   1.574226   1.982332   21.083621
323  323  1     1.0000   1.574226   12.043190   7.030904
324  324  1     1.0000   1.574226   12.043190   21.083621
325  325  1     1.0000   12.489962   1.982332   7.030904
326  326  1     1.0000   12.489962   1.982332   21.083621
327  327  1     1.0000   12.489962   12.043190   7.030904
328  328  1     1.0000   12.489962   12.043190   21.083621
329  329  1     1.0000   1.366058   7.453542   6.660545
330  330  1     1.0000   1.366058   7.453542   20.713261
331  331  1     1.0000   1.366058   17.514400   6.660545
332  332  1     1.0000   1.366058   17.514400   20.713261
333  333  1     1.0000   12.281794   7.453542   6.660545
334  334  1     1.0000   12.281794   7.453542   20.713261
335  335  1     1.0000   12.281794   17.514400   6.660545
336  336  1     1.0000   12.281794   17.514400   20.713261
337  337  1     1.0000   3.904498   1.941312   6.932886
338  338  1     1.0000   3.904498   1.941312   20.985603
339  339  1     1.0000   3.904498   12.002170   6.932886
340  340  1     1.0000   3.904498   12.002170   20.985603
341  341  1     1.0000   14.820234   1.941312   6.932886
342  342  1     1.0000   14.820234   1.941312   20.985603
343  343  1     1.0000   14.820234   12.002170   6.932886
344  344  1     1.0000   14.820234   12.002170   20.985603
345  345  1     1.0000   4.176484   6.920229   6.953522
346  346  1     1.0000   4.176484   6.920229   21.006239
347  347  1     1.0000   4.176484   16.981087   6.953522
348  348  1     1.0000   4.176484   16.981087   21.006239
349  349  1     1.0000   15.092220   6.920229   6.953522
350  350  1     1.0000   15.092220   6.920229   21.006239
351  351  1     1.0000   15.092220   16.981087   6.953522
352  352  1     1.0000   15.092220   16.981087   21.006239
353  353  1     1.0000   6.903341   2.448988   7.329993
354  354  1     1.0000   6.903341   2.448988   21.382710
355  355  1     1.0000   6.903341   12.509846   7.329993
356  356  1     1.0000   6.903341   12.509846   21.382710
357  357  1     1.0000   17.819077   2.448988   7.329993
358  358  1     1.0000   17.819077   2.448988   21.382710
359  359  1     1.0000   17.819077   12.509846   7.329993
360  360  1     1.0000   17.819077   12.509846   21.382710
361  361  1     1.0000   6.644529   7.160946   6.991002
362  362  1     1.0000   6.644529   7.160946   21.043719
363  363  1     1.0000   6.644529   17.221803   6.991002
364  364  1     1.0000   6.644529   17.221803   21.043719
365  365  1     1.0000   17.560265   7.160946   6.991002
366  366  1     1.0000   17.560265   7.160946   21.043719
367  367  1     1.0000   17.560265   17.221803   6.991002
368  368  1     1.0000   17.560265   17.221803   21.043719
369  369  1     1.0000   9.779273   2.345421   6.738202
370  370  1     1.0000   9.779273   2.345421   20.790919
371  371  1     1.0000   9.779273   12.406279   6.738202
372  372  1     1.0000   9.779273   12.406279   20.790919
373  373  1     1.0000   20.695009   2.345421   6.738202
374  374  1     1.0000   20.695009   2.345421   20.790919
375  375  1     1.0000   20.695009   12.406279   6.738202
376  376  1     1.0000   20.695009   12.406279   20.790919
377  377  1     1.0000   9.465962   7.298734   7.167800
378  378  1     1.0000   9.465962   7.298734   21.220517
379  379  1     1.0000   9.465962   17.359591   7.167800
380  380  1     1.0000   9.465962   17.359591   21.220517
381  381  1     1.0000   20.381698   7.298734   7.167800
382  382  1     1.0000   20.381698   7.298734   21.220517
383  383  1     1.0000   20.381698   17.359591   7.167800
384  384  1     1.0000   20.381698   17.359591   21.220517
385  385  2     3.0000   10.876759   4.614279   14.000644
386  386  2     3.0000   10.876759   4.614279   28.053360
387  387  2     3.0000   10.876759   14.675137   14.000644
388  388  2     3.0000   10.876759   14.675137   28.053360
389  389  2     3.0000   21.792495   4.614279   14.000644
390  390  2     3.0000   21.792495   4.614279   28.053360
391  391  2     3.0000   21.792495   14.675137   14.000644
392  392  2     3.0000   21.792495   14.675137   28.053360
393  393  2     3.0000   10.871953   9.666968   0.205233
394  394  2     3.0000   10.871953   9.666968   14.257950
395  395  2     3.0000   10.871953   19.727826   0.205233
396  396  2     3.0000   10.871953   19.727826   14.257950
397  397  2     3.0000   21.787689   9.666968   0.205233
398  398  2     3.0000   21.787689   9.666968   14.257950
399  399  2     3.0000   21.787689   19.727826   0.205233
400  400  2     3.0000   21.787689   19.727826   14.257950
401  401  2     3.0000   2.740255   4.684281   14.025004
402  402  2     3.0000   2.740255   4.684281   28.077721
403  403  2     3.0000   2.740255   14.745139   14.025004
404  404  2     3.0000   2.740255   14.745139   28.077721
405  405  2     3.0000   13.655991   4.684281   14.025004
406  406  2     3.0000   13.655991   4.684281   28.077721
407  407  2     3.0000   13.655991   14.745139   14.025004
408  408  2     3.0000   13.655991   14.745139   28.077721
409  409  2     3.0000   2.536877   9.634514   14.035985
410  410  2     3.0000   2.536877   9.634514   28.088702
411  411  2     3.0000   2.536877   19.695372   14.035985
412  412  2     3.0000   2.536877   19.695372   28.088702
413  413  2     3.0000   13.452613   9.634514   14.035985
414  414  2     3.0000   13.452613   9.634514   28.088702
415  415  2     3.0000   13.452613   19.695372   14.035985
416  416  2     3.0000   13.452613   19.695372   28.088702
417  417  2     3.0000   5.403056   4.738953   0.074166
418  418  2     3.0000   5.403056   4.738953   14.126882
419  419  2     3.0000   5.403056   14.799811   0.074166
420  420  2     3.0000   5.403056   14.799811   14.126882
421  421  2     3.0000   16.318792   4.738953   0.074166
422  422  2     3.0000   16.318792   4.738953   14.126882
423  423  2     3.0000   16.318792   14.799811   0.074166
424  424  2     3.0000   16.318792   14.799811   14.126882
425  425  2     3.0000   5.442403   9.816457   13.831761
426  426  2     3.0000   5.442403   9.816457   27.884478
427  427  2     3.0000   5.442403   19.877314   13.831761
428  428  2     3.0000   5.442403   19.877314   27.884478
429  429  2     3.0000   16.358139   9.816457   13.831761
430  430  2     3.0000   16.358139   9.816457   27.884478
431  431  2     3.0000   16.358139   19.877314   13.831761
432  432  2     3.0000   16.358139   19.877314   27.884478
433  433  2     3.0000   8.154325   4.749777   0.012565
434  434  2     3.0000   8.154325   4.749777   14.065282
435  435  2     3.0000   8.154325   14.810634   0.012565
436  436  2     3.0000   8.154325   14.810634   14.065282
437  437  2     3.0000   19.070061   4.749777   0.012565
438  438  2     3.0000   19.070061   4.749777   14.065282
439  439  2     3.0000   19.070061   14.810634   0.012565
440  440  2     3.0000   19.070061   14.810634   14.065282
441  441  2     3.0000   8.104754   9.826632   0.064763
442  442  2     3.0000   8.104754   9.826632   14.117479
443  443  2     3.0000   8.104754   19.887490   0.064763
444  444  2     3.0000   8.104754   19.887490   14.117479
445  445  2     3.0000   19.020490   9.826632   0.064763
446  446  2     3.0000   19.020490   9.826632   14.117479
447  447  2     3.0000   19.020490   19.887490   0.064763
448  448  2     3.0000   19.020490   19.887490   14.117479
449  449  2     3.0000   1.361110   2.088658   0.237463
450  450  2     3.0000   1.361110   2.088658   14.290179
451  451  2     3.0000   1.361110   12.149515   0.237463
452  452  2     3.0000   1.361110   12.149515   14.290179
453  453  2     3.0000   12.276846   2.088658   0.237463
454  454  2     3.0000   12.276846   2.088658   14.290179
455  455  2     3.0000   12.276846   12.149515   0.237463
456  456  2     3.0000   12.276846   12.149515   14.290179
457  457  2     3.0000   1.331950   7.194746   0.006813
458  458  2     3.0000   1.331950   7.194746   14.059529
459  459  2     3.0000   1.331950   17.255604   0.006813
460  460  2     3.0000   1.331950   17.255604   14.059529
461  461  2     3.0000   12.247686   7.194746   0.006813
462  462  2     3.0000   12.247686   7.194746   14.059529
463  463  2     3.0000   12.247686   17.255604   0.006813
464  464  2     3.0000   12.247686   17.255604   14.059529
465  465  2     3.0000   4.107140   2.218170   13.908066
466  466  2     3.0000   4.107140   2.218170   27.960783
467  467  2     3.0000   4.107140   12.279028   13.908066
468  468  2     3.0000   4.107140   12.279028   27.960783
469  469  2     3.0000   15.022877   2.218170   13.908066
470  470  2     3.0000   15.022877   2.218170   27.960783
471  471  2     3.0000   15.022877   12.279028   13.908066
472  472  2     3.0000   15.022877   12.279028   27.960783
473  473  2     3.0000   4.024005   7.238252   13.997797
474  474  2     3.0000   4.024005   7.238252   28.050514
475  475  2     3.0000   4.024005   17.299110   13.997797
476  476  2     3.0000   4.024005   17.299110   28.050514
477  477  2     3.0000   14.939742   7.238252   13.997797
478  478  2     3.0000   14.939742   7.238252   28.050514
479  479  2     3.0000   14.939742   17.299110   13.997797
480  480  2     3.0000   14.939742   17.299110   28.050514
481  481  2     3.0000   6.806561   2.351516   0.018254
482  482  2     3.0000   6.806561   2.351516   14.070971
483  483  2     3.0000   6.806561   12.412374   0.018254
484  484  2     3.0000   6.806561   12.412374   14.070971
485  485  2     3.0000   17.722297   2.351516   0.018254
486  486  2     3.0000   17.722297   2.351516   14.070971
487  487  2     3.0000   17.722297   12.412374   0.018254
488  488  2     3.0000   17.722297   12.412374   14.070971
489  489  2     3.0000   6.799768   7.296494   13.977664
490  490  2     3.0000   6.799768   7.296494   28.030380
491  491  2     3.0000   6.799768   17.357352   13.977664
492  492  2     3.0000   6.799768   17.357352   28.030380
493  493  2     3.0000   17.715504   7.296494   13.977664
494  494  2     3.0000   17.715504   7.296494   28.030380
495  495  2     3.0000   17.715504   17.357352   13.977664
496  496  2     3.0000   17.715504   17.357352   28.030380
497  497  2     3.0000   9.547967   2.292569   0.164938
498  498  2     3.0000   9.547967   2.292569   14.217655
499  499  2     3.0000   9.547967   12.353426   0.164938
500  500  2     3.0000   9.547967   12.353426   14.217655
501  501  2     3.0000   20.463703   2.292569   0.164938
502  502  2     3.0000   20.463703   2.292569   14.217655
503  503  2     3.0000   20.463703   12.353426   0.164938
504  504  2     3.0000   20.463703   12.353426   14.217655
505  505  2     3.0000   9.463340   7.217698   14.003025
506  506  2     3.0000   9.463340   7.217698   28.055742
507  507  2     3.0000   9.463340   17.278556   14.003025
508  508  2     3.0000   9.463340   17.278556   28.055742
509  509  2     3.0000   20.379076   7.217698   14.003025
510  510  2     3.0000   20.379076   7.217698   28.055742
511  511  2     3.0000   20.379076   17.278556   14.003025
512  512  2     3.0000   20.379076   17.278556   28.055742
513  513  2     3.0000   1.364503   0.369862   4.662859
514  514  2     3.0000   1.364503   0.369862   18.715576
515  515  2     3.0000   1.364503   10.430719   4.662859
516  516  2     3.0000   1.364503   10.430719   18.715576