title

288   atoms
96   bonds

4   atom types
1   bond types

0.0 12.176542 xlo xhi
0.0 9.588532 ylo yhi
0.0 13.997015 zlo zhi

-4.66146 0.58146 0.44776 xy xz yz 

Masses

1   6.94100 # Li
2  58.69340 # Ni
3  14.39910 # O core
4   1.59990 # O shell

Atoms

1    1    1     1.0000   0.183450   1.881426   2.300871
2    2    1     1.0000  -1.159741   4.271790   2.400362
3    3    1     1.0000  -2.104747   6.665434   2.359589
4    4    1     1.0000  -3.334382   8.599091   2.336438
5    5    1     1.0000   3.017887   1.749039   2.345214
6    6    1     1.0000   1.879941   3.998494   2.355894
7    7    1     1.0000   0.605390   6.384660   2.218191
8    8    1     1.0000  -0.416633   8.924959   2.015850
9    9    1     1.0000   5.830606   1.679566   2.246017
10   10   1     1.0000   4.729738   4.173416   2.110610
11   11   1     1.0000   3.731987   6.461664   2.471677
12   12   1     1.0000   2.090482   8.896210   2.301333
13   13   1     1.0000   8.625250   1.837010   2.475638
14   14   1     1.0000   7.582575   4.221724   2.185046
15   15   1     1.0000   6.448051   6.393911   2.715463
16   16   1     1.0000   5.152765   9.021001   2.384532
17   17   1     1.0000   0.582232   0.501634   6.916219
18   18   1     1.0000   10.199267   2.571390   6.736330
19   19   1     1.0000   9.133279   4.888039   7.157024
20   20   1     1.0000  -2.949556   7.270939   7.107348
21   21   1     1.0000   3.309184   0.223322   6.915561
22   22   1     1.0000   2.062179   2.621075   7.095717
23   23   1     1.0000   0.880403   4.850880   6.983503
24   24   1     1.0000  -0.255329   7.214879   7.148668
25   25   1     1.0000   1.315608   9.685761   6.854296
26   26   1     1.0000   4.866021   2.513851   7.008991
27   27   1     1.0000   3.544065   5.029622   7.046545
28   28   1     1.0000   2.578163   7.471309   6.998536
29   29   1     1.0000   8.844523   0.554925   6.854478
30   30   1     1.0000   7.506725   2.560099   6.746561
31   31   1     1.0000   6.201893   4.979831   6.900907
32   32   1     1.0000   5.235293   7.472571   7.215545
33   33   1     1.0000   2.099261   1.106829   11.460252
34   34   1     1.0000   1.210780   3.672511   11.490640
35   35   1     1.0000  -0.274377   5.686835   11.448635
36   36   1     1.0000  -1.540935   8.428025   11.669718
37   37   1     1.0000   5.032449   0.835831   11.828654
38   38   1     1.0000   3.618772   3.695103   11.679460
39   39   1     1.0000   2.386533   6.092612   11.662509
40   40   1     1.0000   1.094372   8.245173   11.552745
41   41   1     1.0000   7.496220   1.251853   11.494755
42   42   1     1.0000   6.072385   3.276647   11.971717
43   43   1     1.0000   5.328724   6.040418   11.559701
44   44   1     1.0000   4.035451   8.125028   11.502509
45   45   1     1.0000   10.248012   1.028689   11.882654
46   46   1     1.0000   9.097635   3.434616   11.390197
47   47   1     1.0000   8.384061   5.576089   11.655413
48   48   1     1.0000   7.106202   8.321994   11.646007
49   49   2     3.0000   11.110889   0.042932   0.313869
50   50   2     3.0000   9.912212   2.534803   0.097769
51   51   2     3.0000   8.795895   4.924240   0.147920
52   52   2     3.0000   7.566986   7.142405   0.037680
53   53   2     3.0000  -1.387562   10.011495   13.934309
54   54   2     3.0000   1.506242   2.340141   0.046330
55   55   2     3.0000   0.989522   5.275567   13.944107
56   56   2     3.0000  -0.849398   7.252399   0.045154
57   57   2     3.0000   0.840005   9.466046   0.174543
58   58   2     3.0000   4.366739   2.422035   0.005683
59   59   2     3.0000   3.735995   5.315806   13.977700
60   60   2     3.0000   2.054489   7.160526   0.042159
61   61   2     3.0000   8.371271   0.139291   0.025349
62   62   2     3.0000   7.278303   2.442115   0.195328
63   63   2     3.0000   6.066923   4.837263   0.048262
64   64   2     3.0000   5.414431   7.600103   13.832578
65   65   2     3.0000   1.539413   0.908422   4.825345
66   66   2     3.0000   0.600732   3.451940   4.664967
67   67   2     3.0000  -0.572473   5.811880   4.676613
68   68   2     3.0000  -1.711852   8.156377   4.708512
69   69   2     3.0000   4.292815   0.945379   4.664715
70   70   2     3.0000   3.307323   3.329285   4.615908
71   71   2     3.0000   2.319670   5.912652   4.865866
72   72   2     3.0000   1.015576   8.262075   4.520322
73   73   2     3.0000   7.374866   0.838076   4.500012
74   74   2     3.0000   5.983182   3.246088   4.619141
75   75   2     3.0000   4.855906   5.703711   4.728598
76   76   2     3.0000   3.929020   8.103158   4.798849
77   77   2     3.0000   10.028107   0.860506   4.788589
78   78   2     3.0000   8.896623   3.361046   4.521890
79   79   2     3.0000   7.877397   5.820210   4.762163
80   80   2     3.0000   6.635321   8.175710   4.825737
81   81   2     3.0000   0.565569   1.890152   9.203262
82   82   2     3.0000  -0.502322   4.324702   9.125578
83   83   2     3.0000  -1.777693   6.561077   9.307665
84   84   2     3.0000  -2.929203   8.956058   9.044563
85   85   2     3.0000   3.495323   1.910727   9.292535
86   86   2     3.0000   2.393994   4.257031   9.295600
87   87   2     3.0000   1.067814   6.463065   9.212458
88   88   2     3.0000   0.030027   8.889724   9.299799
89   89   2     3.0000   6.289859   1.877553   9.177409
90   90   2     3.0000   5.115923   4.408706   9.357481
91   91   2     3.0000   3.786358   6.672545   9.379764
92   92   2     3.0000   2.845402   9.117627   9.285480
93   93   2     3.0000   8.923760   1.936452   9.176891
94   94   2     3.0000   7.791292   4.252381   9.222088
95   95   2     3.0000   6.784950   6.727560   9.390500
96   96   2     3.0000   5.655532   9.151244   9.395903
97   97   3     0.9600   0.252474   0.165676   3.782036
98   97   4    -2.9600   0.252474   0.165676   3.782036
99   98   3     0.9600  -0.806743   2.298925   3.631176
100  98   4    -2.9600  -0.806743   2.298925   3.631176
101  99   3     0.9600  -2.142789   5.085028   3.656188
102  99   4    -2.9600  -2.142789   5.085028   3.656188
103  100  3     0.9600   7.804855   7.329996   3.721233
104  100  4    -2.9600   7.804855   7.329996   3.721233
105  101  3     0.9600  -1.922520   9.564056   3.549769
106  101  4    -2.9600  -1.922520   9.564056   3.549769
107  102  3     0.9600   1.812523   2.474014   3.556096
108  102  4    -2.9600   1.812523   2.474014   3.556096
109  103  3     0.9600   0.192711   4.814298   3.393114
110  103  4    -2.9600   0.192711   4.814298   3.393114
111  104  3     0.9600  -0.697360   7.323833   3.608794
112  104  4    -2.9600  -0.697360   7.323833   3.608794
113  105  3     0.9600   5.461579   0.203398   3.433034
114  105  4    -2.9600   5.461579   0.203398   3.433034
115  106  3     0.9600   4.657152   2.512693   3.782833
116  106  4    -2.9600   4.657152   2.512693   3.782833
117  107  3     0.9600   3.460781   4.805932   3.484305
118  107  4    -2.9600   3.460781   4.805932   3.484305
119  108  3     0.9600   2.442748   7.321242   3.837394
120  108  4    -2.9600   2.442748   7.321242   3.837394
121  109  3     0.9600   3.899490   9.430627   3.583698
122  109  4    -2.9600   3.899490   9.430627   3.583698
123  110  3     0.9600   7.162353   2.339785   3.551225
124  110  4    -2.9600   7.162353   2.339785   3.551225
125  111  3     0.9600   5.912155   4.678624   3.593398
126  111  4    -2.9600   5.912155   4.678624   3.593398
127  112  3     0.9600   5.147478   7.080891   3.788628
128  112  4    -2.9600   5.147478   7.080891   3.788628
129  113  3     0.9600   1.534274   0.844557   1.005448
130  113  4    -2.9600   1.534274   0.844557   1.005448
131  114  3     0.9600   0.194001   3.299771   0.970441
132  114  4    -2.9600   0.194001   3.299771   0.970441
133  115  3     0.9600  -0.796934   5.698611   1.241773
134  115  4    -2.9600  -0.796934   5.698611   1.241773
135  116  3     0.9600  -2.139246   8.141604   1.045059
136  116  4    -2.9600  -2.139246   8.141604   1.045059
137  117  3     0.9600   4.149836   0.835389   0.990135
138  117  4    -2.9600   4.149836   0.835389   0.990135
139  118  3     0.9600   3.190820   3.379296   1.008709
140  118  4    -2.9600   3.190820   3.379296   1.008709
141  119  3     0.9600   1.827139   5.458215   0.967642
142  119  4    -2.9600   1.827139   5.458215   0.967642
143  120  3     0.9600   1.071297   7.942836   1.222513
144  120  4    -2.9600   1.071297   7.942836   1.222513
145  121  3     0.9600   7.169818   0.937762   1.028543
146  121  4    -2.9600   7.169818   0.937762   1.028543
147  122  3     0.9600   5.913304   3.382639   0.932369
148  122  4    -2.9600   5.913304   3.382639   0.932369
149  123  3     0.9600   4.539063   5.534286   0.810189
150  123  4    -2.9600   4.539063   5.534286   0.810189
151  124  3     0.9600   3.959998   8.066709   1.244069
152  124  4    -2.9600   3.959998   8.066709   1.244069
153  125  3     0.9600   9.832505   0.752839   1.065705
154  125  4    -2.9600   9.832505   0.752839   1.065705
155  126  3     0.9600   8.858551   3.526919   1.201098
156  126  4    -2.9600   8.858551   3.526919   1.201098
157  127  3     0.9600   7.688403   5.745927   1.349564
158  127  4    -2.9600   7.688403   5.745927   1.349564
159  128  3     0.9600   6.308974   7.906037   1.050336
160  128  4    -2.9600   6.308974   7.906037   1.050336
161  129  3     0.9600   2.009034   1.081709   8.214414
162  129  4    -2.9600   2.009034   1.081709   8.214414
163  130  3     0.9600   0.895195   3.461632   8.418687
164  130  4    -2.9600   0.895195   3.461632   8.418687
165  131  3     0.9600  -0.505546   5.834281   8.198262
166  131  4    -2.9600  -0.505546   5.834281   8.198262
167  132  3     0.9600  -1.779484   7.975851   8.226382
168  132  4    -2.9600  -1.779484   7.975851   8.226382
169  133  3     0.9600   4.705881   1.175341   8.164921
170  133  4    -2.9600   4.705881   1.175341   8.164921
171  134  3     0.9600   3.449992   3.264927   8.215982
172  134  4    -2.9600   3.449992   3.264927   8.215982
173  135  3     0.9600   2.246118   5.632058   8.171850
174  135  4    -2.9600   2.246118   5.632058   8.171850
175  136  3     0.9600   1.179467   8.017318   8.380377
176  136  4    -2.9600   1.179467   8.017318   8.380377
177  137  3     0.9600   7.280528   0.900929   8.185567
178  137  4    -2.9600   7.280528   0.900929   8.185567
179  138  3     0.9600   6.093861   3.439837   8.124820
180  138  4    -2.9600   6.093861   3.439837   8.124820
181  139  3     0.9600   5.132859   5.825646   8.399903
182  139  4    -2.9600   5.132859   5.825646   8.399903
183  140  3     0.9600   4.074606   8.128094   8.405418
184  140  4    -2.9600   4.074606   8.128094   8.405418
185  141  3     0.9600   10.103130   0.906000   8.203063
186  141  4    -2.9600   10.103130   0.906000   8.203063
187  142  3     0.9600   8.961929   3.366639   8.032817
188  142  4    -2.9600   8.961929   3.366639   8.032817
189  143  3     0.9600   8.046231   5.903062   8.260241
190  143  4    -2.9600   8.046231   5.903062   8.260241
191  144  3     0.9600   6.901306   8.337041   8.283280
192  144  4    -2.9600   6.901306   8.337041   8.283280
193  145  3     0.9600   0.367658   2.033779   5.746937
194  145  4    -2.9600   0.367658   2.033779   5.746937
195  146  3     0.9600  -0.394480   4.357348   5.641119
196  146  4    -2.9600  -0.394480   4.357348   5.641119
197  147  3     0.9600  -1.763362   6.512030   5.791111
198  147  4    -2.9600  -1.763362   6.512030   5.791111
199  148  3     0.9600  -2.918446   8.918968   5.835048
200  148  4    -2.9600  -2.918446   8.918968   5.835048
201  149  3     0.9600   2.979861   1.673557   5.753543
202  149  4    -2.9600   2.979861   1.673557   5.753543
203  150  3     0.9600   2.120899   4.379600   5.554072
204  150  4    -2.9600   2.120899   4.379600   5.554072
205  151  3     0.9600   0.830175   6.573879   5.610970
206  151  4    -2.9600   0.830175   6.573879   5.610970
207  152  3     0.9600  -0.305477   9.009907   5.665712
208  152  4    -2.9600  -0.305477   9.009907   5.665712
209  153  3     0.9600   6.111896   1.751677   5.617632
210  153  4    -2.9600   6.111896   1.751677   5.617632
211  154  3     0.9600   4.930976   4.184086   5.772439
212  154  4    -2.9600   4.930976   4.184086   5.772439
213  155  3     0.9600   3.884303   6.954946   5.995230
214  155  4    -2.9600   3.884303   6.954946   5.995230
215  156  3     0.9600   2.686160   9.089264   5.760724
216  156  4    -2.9600   2.686160   9.089264   5.760724
217  157  3     0.9600   8.783753   1.834834   5.583213
218  157  4    -2.9600   8.783753   1.834834   5.583213
219  158  3     0.9600   7.496871   3.943411   5.611431
220  158  4    -2.9600   7.496871   3.943411   5.611431
221  159  3     0.9600   6.495503   6.476465   5.662605
222  159  4    -2.9600   6.495503   6.476465   5.662605
223  160  3     0.9600   5.390655   8.968826   6.011536
224  160  4    -2.9600   5.390655   8.968826   6.011536
225  161  3     0.9600   0.412728   1.936470   12.977333
226  161  4    -2.9600   0.412728   1.936470   12.977333
227  162  3     0.9600  -0.438759   4.562443   13.008504
228  162  4    -2.9600  -0.438759   4.562443   13.008504
229  163  3     0.9600  -1.879883   6.735763   13.022529
230  163  4    -2.9600  -1.879883   6.735763   13.022529
231  164  3     0.9600  -2.870328   9.324201   13.009708
232  164  4    -2.9600  -2.870328   9.324201   13.009708
233  165  3     0.9600   3.551536   1.878471   13.005061
234  165  4    -2.9600   3.551536   1.878471   13.005061
235  166  3     0.9600   2.232192   4.509227   13.075858
236  166  4    -2.9600   2.232192   4.509227   13.075858
237  167  3     0.9600   0.931337   6.818729   12.971622
238  167  4    -2.9600   0.931337   6.818729   12.971622
239  168  3     0.9600  -0.301909   9.000320   12.828629
240  168  4    -2.9600  -0.301909   9.000320   12.828629
241  169  3     0.9600   6.134190   1.920015   13.047108
242  169  4    -2.9600   6.134190   1.920015   13.047108
243  170  3     0.9600   4.935327   4.350083   12.944888
244  170  4    -2.9600   4.935327   4.350083   12.944888
245  171  3     0.9600   3.621518   6.779865   12.772948
246  171  4    -2.9600   3.621518   6.779865   12.772948
247  172  3     0.9600   2.824475   9.412381   12.995487
248  172  4    -2.9600   2.824475   9.412381   12.995487
249  173  3     0.9600   9.035373   2.144422   13.192089
250  173  4    -2.9600   9.035373   2.144422   13.192089
251  174  3     0.9600   8.057557   4.473520   12.949507
252  174  4    -2.9600   8.057557   4.473520   12.949507
253  175  3     0.9600   6.631441   6.728657   12.979740
254  175  4    -2.9600   6.631441   6.728657   12.979740
255  176  3     0.9600   5.609629   9.127944   12.998860
256  176  4    -2.9600   5.609629   9.127944   12.998860
257  177  3     0.9600   0.543892   0.406471   10.218605
258  177  4    -2.9600   0.543892   0.406471   10.218605
259  178  3     0.9600  -0.476613   2.884186   10.210585
260  178  4    -2.9600  -0.476613   2.884186   10.210585
261  179  3     0.9600  -1.698156   5.002094   10.267609
262  179  4    -2.9600  -1.698156   5.002094   10.267609
263  180  3     0.9600  -2.743679   7.192132   10.767120
264  180  4    -2.9600  -2.743679   7.192132   10.767120
265  181  3     0.9600  -1.263812   9.719463   10.513620
266  181  4    -2.9600  -1.263812   9.719463   10.513620
267  182  3     0.9600   2.330478   2.828191   10.392280
268  182  4    -2.9600   2.330478   2.828191   10.392280
269  183  3     0.9600   1.195904   5.152157   10.365014
270  183  4    -2.9600   1.195904   5.152157   10.365014
271  184  3     0.9600  -0.144793   7.169993   10.197806
272  184  4    -2.9600  -0.144793   7.169993   10.197806
273  185  3     0.9600   6.260319   0.475427   10.207939
274  185  4    -2.9600   6.260319   0.475427   10.207939
275  186  3     0.9600   5.060006   2.573880   10.429596
276  186  4    -2.9600   5.060006   2.573880   10.429596
277  187  3     0.9600   3.860248   5.180883   10.404597
278  187  4    -2.9600   3.860248   5.180883   10.404597
279  188  3     0.9600   2.772421   7.721634   10.380481
280  188  4    -2.9600   2.772421   7.721634   10.380481
281  189  3     0.9600   8.953879   0.518861   10.207547
282  189  4    -2.9600   8.953879   0.518861   10.207547
283  190  3     0.9600   7.706132   2.691675   10.058437
284  190  4    -2.9600   7.706132   2.691675   10.058437
285  191  3     0.9600   6.485801   4.852187   10.250518
286  191  4    -2.9600   6.485801   4.852187   10.250518
287  192  3     0.9600   5.736074   7.755213   10.441801
288  192  4    -2.9600   5.736074   7.755213   10.441801

Bonds

1    1    97   98  
2    1    99   100 
3    1    101  102 
4    1    103  104 
5    1    105  106 
6    1    107  108 
7    1    109  110 
8    1    111  112 
9    1    113  114 
10   1    115  116 
11   1    117  118 
12   1    119  120 
13   1    121  122 
14   1    123  124 
15   1    125  126 
16   1    127  128 
17   1    129  130 
18   1    131  132 
19   1    133  134 
20   1    135  136 
21   1    137  138 
22   1    139  140 
23   1    141  142 
24   1    143  144 
25   1    145  146 
26   1    147  148 
27   1    149  150 
28   1    151  152 
29   1    153  154 
30   1    155  156 
31   1    157  158 
32   1    159  160 
33   1    161  162 
34   1    163  164 
35   1    165  166 
36   1    167  168 
37   1    169  170 
38   1    171  172 
39   1    173  174 
40   1    175  176 
41   1    177  178 
42   1    179  180 
43   1    181  182 
44   1    183  184 
45   1    185  186 
46   1    187  188 
47   1    189  190 
48   1    191  192 
49   1    193  194 
50   1    195  196 
51   1    197  198 
52   1    199  200 
53   1    201  202 
54   1    203  204 
55   1    205  206 
56   1    207  208 
57   1    209  210 
58   1    211  212 
59   1    213  214 
60   1    215  216 
61   1    217  218 
62   1    219  220 
63   1    221  222 
64   1    223  224 
65   1    225  226 
66   1    227  228 
67   1    229  230 
68   1    231  232 
69   1    233  234 
70   1    235  236 
71   1    237  238 
72   1    239  240 
73   1    241  242 
74   1    243  244 
75   1    245  246 
76   1    247  248 
77   1    249  250 
78   1    251  252 
79   1    253  254 
80   1    255  256 
81   1    257  258 
82   1    259  260 
83   1    261  262 
84   1    263  264 
85   1    265  266 
86   1    267  268 
87   1    269  270 
88   1    271  272 
89   1    273  274 
90   1    275  276 
91   1    277  278 
92   1    279  280 
93   1    281  282 
94   1    283  284 
95   1    285  286 
96   1    287  288 

