title

2304   atoms
768   bonds

4   atom types
1   bond types


0.0 21.831472 xlo xhi
0.0 20.121716 ylo yhi
0.0 28.105434 zlo zhi

0.00000 0.00000 0.00000 xy xz yz 

Masses

1   6.94100 # Li
2  58.69340 # Ni
3  14.39910 # O core
4   1.59990 # O shell

Atoms

1    1    1     1.0000   2.305354   1.332361   2.445018
2    2    1     1.0000   2.305354   1.332361   16.497735
3    3    1     1.0000   2.305354   11.393218   2.445018
4    4    1     1.0000   2.305354   11.393218   16.497735
5    5    1     1.0000   13.221090   1.332361   2.445018
6    6    1     1.0000   13.221090   1.332361   16.497735
7    7    1     1.0000   13.221090   11.393218   2.445018
8    8    1     1.0000   13.221090   11.393218   16.497735
9    9    1     1.0000   2.808257   6.365369   2.542786
10   10   1     1.0000   2.808257   6.365369   16.595503
11   11   1     1.0000   2.808257   16.426227   2.542786
12   12   1     1.0000   2.808257   16.426227   16.595503
13   13   1     1.0000   13.723993   6.365369   2.542786
14   14   1     1.0000   13.723993   6.365369   16.595503
15   15   1     1.0000   13.723993   16.426227   2.542786
16   16   1     1.0000   13.723993   16.426227   16.595503
17   17   1     1.0000   5.287031   1.355956   2.207912
18   18   1     1.0000   5.287031   1.355956   16.260629
19   19   1     1.0000   5.287031   11.416813   2.207912
20   20   1     1.0000   5.287031   11.416813   16.260629
21   21   1     1.0000   16.202767   1.355956   2.207912
22   22   1     1.0000   16.202767   1.355956   16.260629
23   23   1     1.0000   16.202767   11.416813   2.207912
24   24   1     1.0000   16.202767   11.416813   16.260629
25   25   1     1.0000   5.305528   6.441385   2.188936
26   26   1     1.0000   5.305528   6.441385   16.241652
27   27   1     1.0000   5.305528   16.502243   2.188936
28   28   1     1.0000   5.305528   16.502243   16.241652
29   29   1     1.0000   16.221264   6.441385   2.188936
30   30   1     1.0000   16.221264   6.441385   16.241652
31   31   1     1.0000   16.221264   16.502243   2.188936
32   32   1     1.0000   16.221264   16.502243   16.241652
33   33   1     1.0000   8.049244   1.744070   2.340367
34   34   1     1.0000   8.049244   1.744070   16.393084
35   35   1     1.0000   8.049244   11.804928   2.340367
36   36   1     1.0000   8.049244   11.804928   16.393084
37   37   1     1.0000   18.964980   1.744070   2.340367
38   38   1     1.0000   18.964980   1.744070   16.393084
39   39   1     1.0000   18.964980   11.804928   2.340367
40   40   1     1.0000   18.964980   11.804928   16.393084
41   41   1     1.0000   8.277280   6.252442   2.458703
42   42   1     1.0000   8.277280   6.252442   16.511420
43   43   1     1.0000   8.277280   16.313300   2.458703
44   44   1     1.0000   8.277280   16.313300   16.511420
45   45   1     1.0000   19.193016   6.252442   2.458703
46   46   1     1.0000   19.193016   6.252442   16.511420
47   47   1     1.0000   19.193016   16.313300   2.458703
48   48   1     1.0000   19.193016   16.313300   16.511420
49   49   1     1.0000   10.862741   1.479049   2.183422
50   50   1     1.0000   10.862741   1.479049   16.236138
51   51   1     1.0000   10.862741   11.539907   2.183422
52   52   1     1.0000   10.862741   11.539907   16.236138
53   53   1     1.0000   21.778477   1.479049   2.183422
54   54   1     1.0000   21.778477   1.479049   16.236138
55   55   1     1.0000   21.778477   11.539907   2.183422
56   56   1     1.0000   21.778477   11.539907   16.236138
57   57   1     1.0000   10.888816   6.272972   2.515872
58   58   1     1.0000   10.888816   6.272972   16.568588
59   59   1     1.0000   10.888816   16.333829   2.515872
60   60   1     1.0000   10.888816   16.333829   16.568588
61   61   1     1.0000   21.804553   6.272972   2.515872
62   62   1     1.0000   21.804553   6.272972   16.568588
63   63   1     1.0000   21.804553   16.333829   2.515872
64   64   1     1.0000   21.804553   16.333829   16.568588
65   65   1     1.0000   0.971583   3.627403   2.409117
66   66   1     1.0000   0.971583   3.627403   16.461834
67   67   1     1.0000   0.971583   13.688261   2.409117
68   68   1     1.0000   0.971583   13.688261   16.461834
69   69   1     1.0000   11.887319   3.627403   2.409117
70   70   1     1.0000   11.887319   3.627403   16.461834
71   71   1     1.0000   11.887319   13.688261   2.409117
72   72   1     1.0000   11.887319   13.688261   16.461834
73   73   1     1.0000   1.297635   8.895541   2.244822
74   74   1     1.0000   1.297635   8.895541   16.297538
75   75   1     1.0000   1.297635   18.956399   2.244822
76   76   1     1.0000   1.297635   18.956399   16.297538
77   77   1     1.0000   12.213371   8.895541   2.244822
78   78   1     1.0000   12.213371   8.895541   16.297538
79   79   1     1.0000   12.213371   18.956399   2.244822
80   80   1     1.0000   12.213371   18.956399   16.297538
81   81   1     1.0000   4.322031   3.764130   2.403611
82   82   1     1.0000   4.322031   3.764130   16.456328
83   83   1     1.0000   4.322031   13.824988   2.403611
84   84   1     1.0000   4.322031   13.824988   16.456328
85   85   1     1.0000   15.237767   3.764130   2.403611
86   86   1     1.0000   15.237767   3.764130   16.456328
87   87   1     1.0000   15.237767   13.824988   2.403611
88   88   1     1.0000   15.237767   13.824988   16.456328
89   89   1     1.0000   3.973761   8.738647   2.562365
90   90   1     1.0000   3.973761   8.738647   16.615082
91   91   1     1.0000   3.973761   18.799505   2.562365
92   92   1     1.0000   3.973761   18.799505   16.615082
93   93   1     1.0000   14.889498   8.738647   2.562365
94   94   1     1.0000   14.889498   8.738647   16.615082
95   95   1     1.0000   14.889498   18.799505   2.562365
96   96   1     1.0000   14.889498   18.799505   16.615082
97   97   1     1.0000   6.723896   3.866585   2.394319
98   98   1     1.0000   6.723896   3.866585   16.447036
99   99   1     1.0000   6.723896   13.927443   2.394319
100  100  1     1.0000   6.723896   13.927443   16.447036
101  101  1     1.0000   17.639632   3.866585   2.394319
102  102  1     1.0000   17.639632   3.866585   16.447036
103  103  1     1.0000   17.639632   13.927443   2.394319
104  104  1     1.0000   17.639632   13.927443   16.447036
105  105  1     1.0000   6.930882   9.062527   2.242866
106  106  1     1.0000   6.930882   9.062527   16.295583
107  107  1     1.0000   6.930882   19.123385   2.242866
108  108  1     1.0000   6.930882   19.123385   16.295583
109  109  1     1.0000   17.846618   9.062527   2.242866
110  110  1     1.0000   17.846618   9.062527   16.295583
111  111  1     1.0000   17.846618   19.123385   2.242866
112  112  1     1.0000   17.846618   19.123385   16.295583
113  113  1     1.0000   9.629164   3.593806   2.340559
114  114  1     1.0000   9.629164   3.593806   16.393276
115  115  1     1.0000   9.629164   13.654664   2.340559
116  116  1     1.0000   9.629164   13.654664   16.393276
117  117  1     1.0000   20.544900   3.593806   2.340559
118  118  1     1.0000   20.544900   3.593806   16.393276
119  119  1     1.0000   20.544900   13.654664   2.340559
120  120  1     1.0000   20.544900   13.654664   16.393276
121  121  1     1.0000   9.824421   9.044954   2.175463
122  122  1     1.0000   9.824421   9.044954   16.228179
123  123  1     1.0000   9.824421   19.105812   2.175463
124  124  1     1.0000   9.824421   19.105812   16.228179
125  125  1     1.0000   20.740157   9.044954   2.175463
126  126  1     1.0000   20.740157   9.044954   16.228179
127  127  1     1.0000   20.740157   19.105812   2.175463
128  128  1     1.0000   20.740157   19.105812   16.228179
129  129  1     1.0000   1.189513   0.410164   11.684492
130  130  1     1.0000   1.189513   0.410164   25.737209
131  131  1     1.0000   1.189513   10.471022   11.684492
132  132  1     1.0000   1.189513   10.471022   25.737209
133  133  1     1.0000   12.105249   0.410164   11.684492
134  134  1     1.0000   12.105249   0.410164   25.737209
135  135  1     1.0000   12.105249   10.471022   11.684492
136  136  1     1.0000   12.105249   10.471022   25.737209
137  137  1     1.0000   1.118048   5.437015   11.652142
138  138  1     1.0000   1.118048   5.437015   25.704858
139  139  1     1.0000   1.118048   15.497873   11.652142
140  140  1     1.0000   1.118048   15.497873   25.704858
141  141  1     1.0000   12.033785   5.437015   11.652142
142  142  1     1.0000   12.033785   5.437015   25.704858
143  143  1     1.0000   12.033785   15.497873   11.652142
144  144  1     1.0000   12.033785   15.497873   25.704858
145  145  1     1.0000   4.094065   0.417171   11.801630
146  146  1     1.0000   4.094065   0.417171   25.854347
147  147  1     1.0000   4.094065   10.478028   11.801630
148  148  1     1.0000   4.094065   10.478028   25.854347
149  149  1     1.0000   15.009801   0.417171   11.801630
150  150  1     1.0000   15.009801   0.417171   25.854347
151  151  1     1.0000   15.009801   10.478028   11.801630
152  152  1     1.0000   15.009801   10.478028   25.854347
153  153  1     1.0000   3.899932   5.356627   11.693230
154  154  1     1.0000   3.899932   5.356627   25.745947
155  155  1     1.0000   3.899932   15.417485   11.693230
156  156  1     1.0000   3.899932   15.417485   25.745947
157  157  1     1.0000   14.815668   5.356627   11.693230
158  158  1     1.0000   14.815668   5.356627   25.745947
159  159  1     1.0000   14.815668   15.417485   11.693230
160  160  1     1.0000   14.815668   15.417485   25.745947
161  161  1     1.0000   6.789120   0.286694   11.892997
162  162  1     1.0000   6.789120   0.286694   25.945714
163  163  1     1.0000   6.789120   10.347552   11.892997
164  164  1     1.0000   6.789120   10.347552   25.945714
165  165  1     1.0000   17.704856   0.286694   11.892997
166  166  1     1.0000   17.704856   0.286694   25.945714
167  167  1     1.0000   17.704856   10.347552   11.892997
168  168  1     1.0000   17.704856   10.347552   25.945714
169  169  1     1.0000   6.782880   5.419915   11.772744
170  170  1     1.0000   6.782880   5.419915   25.825461
171  171  1     1.0000   6.782880   15.480773   11.772744
172  172  1     1.0000   6.782880   15.480773   25.825461
173  173  1     1.0000   17.698616   5.419915   11.772744
174  174  1     1.0000   17.698616   5.419915   25.825461
175  175  1     1.0000   17.698616   15.480773   11.772744
176  176  1     1.0000   17.698616   15.480773   25.825461
177  177  1     1.0000   9.314945   0.710953   11.726375
178  178  1     1.0000   9.314945   0.710953   25.779092
179  179  1     1.0000   9.314945   10.771810   11.726375
180  180  1     1.0000   9.314945   10.771810   25.779092
181  181  1     1.0000   20.230681   0.710953   11.726375
182  182  1     1.0000   20.230681   0.710953   25.779092
183  183  1     1.0000   20.230681   10.771810   11.726375
184  184  1     1.0000   20.230681   10.771810   25.779092
185  185  1     1.0000   9.464505   5.687493   11.582201
186  186  1     1.0000   9.464505   5.687493   25.634918
187  187  1     1.0000   9.464505   15.748351   11.582201
188  188  1     1.0000   9.464505   15.748351   25.634918
189  189  1     1.0000   20.380241   5.687493   11.582201
190  190  1     1.0000   20.380241   5.687493   25.634918
191  191  1     1.0000   20.380241   15.748351   11.582201
192  192  1     1.0000   20.380241   15.748351   25.634918
193  193  1     1.0000   0.159218   2.921377   11.787661
194  194  1     1.0000   0.159218   2.921377   25.840378
195  195  1     1.0000   0.159218   12.982234   11.787661
196  196  1     1.0000   0.159218   12.982234   25.840378
197  197  1     1.0000   11.074955   2.921377   11.787661
198  198  1     1.0000   11.074955   2.921377   25.840378
199  199  1     1.0000   11.074955   12.982234   11.787661
200  200  1     1.0000   11.074955   12.982234   25.840378
201  201  1     1.0000   10.785011   8.013181   11.647915
202  202  1     1.0000   10.785011   8.013181   25.700632
203  203  1     1.0000   10.785011   18.074038   11.647915
204  204  1     1.0000   10.785011   18.074038   25.700632
205  205  1     1.0000   21.700747   8.013181   11.647915
206  206  1     1.0000   21.700747   8.013181   25.700632
207  207  1     1.0000   21.700747   18.074038   11.647915
208  208  1     1.0000   21.700747   18.074038   25.700632
209  209  1     1.0000   2.924601   2.866817   11.721587
210  210  1     1.0000   2.924601   2.866817   25.774304
211  211  1     1.0000   2.924601   12.927674   11.721587
212  212  1     1.0000   2.924601   12.927674   25.774304
213  213  1     1.0000   13.840337   2.866817   11.721587
214  214  1     1.0000   13.840337   2.866817   25.774304
215  215  1     1.0000   13.840337   12.927674   11.721587
216  216  1     1.0000   13.840337   12.927674   25.774304
217  217  1     1.0000   2.713844   7.939277   11.720093
218  218  1     1.0000   2.713844   7.939277   25.772809
219  219  1     1.0000   2.713844   18.000135   11.720093
220  220  1     1.0000   2.713844   18.000135   25.772809
221  221  1     1.0000   13.629580   7.939277   11.720093
222  222  1     1.0000   13.629580   7.939277   25.772809
223  223  1     1.0000   13.629580   18.000135   11.720093
224  224  1     1.0000   13.629580   18.000135   25.772809
225  225  1     1.0000   5.300707   3.255350   11.717444
226  226  1     1.0000   5.300707   3.255350   25.770161
227  227  1     1.0000   5.300707   13.316208   11.717444
228  228  1     1.0000   5.300707   13.316208   25.770161
229  229  1     1.0000   16.216443   3.255350   11.717444
230  230  1     1.0000   16.216443   3.255350   25.770161
231  231  1     1.0000   16.216443   13.316208   11.717444
232  232  1     1.0000   16.216443   13.316208   25.770161
233  233  1     1.0000   5.397361   8.065857   11.516991
234  234  1     1.0000   5.397361   8.065857   25.569708
235  235  1     1.0000   5.397361   18.126715   11.516991
236  236  1     1.0000   5.397361   18.126715   25.569708
237  237  1     1.0000   16.313097   8.065857   11.516991
238  238  1     1.0000   16.313097   8.065857   25.569708
239  239  1     1.0000   16.313097   18.126715   11.516991
240  240  1     1.0000   16.313097   18.126715   25.569708
241  241  1     1.0000   7.998215   3.051038   11.971289
242  242  1     1.0000   7.998215   3.051038   26.024006
243  243  1     1.0000   7.998215   13.111895   11.971289
244  244  1     1.0000   7.998215   13.111895   26.024006
245  245  1     1.0000   18.913951   3.051038   11.971289
246  246  1     1.0000   18.913951   3.051038   26.024006
247  247  1     1.0000   18.913951   13.111895   11.971289
248  248  1     1.0000   18.913951   13.111895   26.024006
249  249  1     1.0000   8.191407   7.814503   11.857759
250  250  1     1.0000   8.191407   7.814503   25.910476
251  251  1     1.0000   8.191407   17.875360   11.857759
252  252  1     1.0000   8.191407   17.875360   25.910476
253  253  1     1.0000   19.107143   7.814503   11.857759
254  254  1     1.0000   19.107143   7.814503   25.910476
255  255  1     1.0000   19.107143   17.875360   11.857759
256  256  1     1.0000   19.107143   17.875360   25.910476
257  257  1     1.0000   0.067010   4.740440   7.078631
258  258  1     1.0000   0.067010   4.740440   21.131348
259  259  1     1.0000   0.067010   14.801297   7.078631
260  260  1     1.0000   0.067010   14.801297   21.131348
261  261  1     1.0000   10.982746   4.740440   7.078631
262  262  1     1.0000   10.982746   4.740440   21.131348
263  263  1     1.0000   10.982746   14.801297   7.078631
264  264  1     1.0000   10.982746   14.801297   21.131348
265  265  1     1.0000   0.261715   9.982257   6.798020
266  266  1     1.0000   0.261715   9.982257   20.850737
267  267  1     1.0000   0.261715   20.043115   6.798020
268  268  1     1.0000   0.261715   20.043115   20.850737
269  269  1     1.0000   11.177451   9.982257   6.798020
270  270  1     1.0000   11.177451   9.982257   20.850737
271  271  1     1.0000   11.177451   20.043115   6.798020
272  272  1     1.0000   11.177451   20.043115   20.850737
273  273  1     1.0000   2.745626   4.886495   6.799006
274  274  1     1.0000   2.745626   4.886495   20.851722
275  275  1     1.0000   2.745626   14.947352   6.799006
276  276  1     1.0000   2.745626   14.947352   20.851722
277  277  1     1.0000   13.661363   4.886495   6.799006
278  278  1     1.0000   13.661363   4.886495   20.851722
279  279  1     1.0000   13.661363   14.947352   6.799006
280  280  1     1.0000   13.661363   14.947352   20.851722
281  281  1     1.0000   2.738347   0.134248   7.111028
282  282  1     1.0000   2.738347   0.134248   21.163744
283  283  1     1.0000   2.738347   10.195106   7.111028
284  284  1     1.0000   2.738347   10.195106   21.163744
285  285  1     1.0000   13.654083   0.134248   7.111028
286  286  1     1.0000   13.654083   0.134248   21.163744
287  287  1     1.0000   13.654083   10.195106   7.111028
288  288  1     1.0000   13.654083   10.195106   21.163744
289  289  1     1.0000   5.566491   4.725313   6.833343
290  290  1     1.0000   5.566491   4.725313   20.886060
291  291  1     1.0000   5.566491   14.786171   6.833343
292  292  1     1.0000   5.566491   14.786171   20.886060
293  293  1     1.0000   16.482227   4.725313   6.833343
294  294  1     1.0000   16.482227   4.725313   20.886060
295  295  1     1.0000   16.482227   14.786171   6.833343
296  296  1     1.0000   16.482227   14.786171   20.886060
297  297  1     1.0000   5.437317   9.937051   6.576200
298  298  1     1.0000   5.437317   9.937051   20.628917
299  299  1     1.0000   5.437317   19.997909   6.576200
300  300  1     1.0000   5.437317   19.997909   20.628917
301  301  1     1.0000   16.353053   9.937051   6.576200
302  302  1     1.0000   16.353053   9.937051   20.628917
303  303  1     1.0000   16.353053   19.997909   6.576200
304  304  1     1.0000   16.353053   19.997909   20.628917
305  305  1     1.0000   8.169885   4.784724   7.031581
306  306  1     1.0000   8.169885   4.784724   21.084298
307  307  1     1.0000   8.169885   14.845582   7.031581
308  308  1     1.0000   8.169885   14.845582   21.084298
309  309  1     1.0000   19.085622   4.784724   7.031581
310  310  1     1.0000   19.085622   4.784724   21.084298
311  311  1     1.0000   19.085622   14.845582   7.031581
312  312  1     1.0000   19.085622   14.845582   21.084298
313  313  1     1.0000   8.057470   9.849828   7.156460
314  314  1     1.0000   8.057470   9.849828   21.209176
315  315  1     1.0000   8.057470   19.910686   7.156460
316  316  1     1.0000   8.057470   19.910686   21.209176
317  317  1     1.0000   18.973207   9.849828   7.156460
318  318  1     1.0000   18.973207   9.849828   21.209176
319  319  1     1.0000   18.973207   19.910686   7.156460
320  320  1     1.0000   18.973207   19.910686   21.209176
321  321  1     1.0000   1.466010   2.423008   6.843073
322  322  1     1.0000   1.466010   2.423008   20.895790
323  323  1     1.0000   1.466010   12.483866   6.843073
324  324  1     1.0000   1.466010   12.483866   20.895790
325  325  1     1.0000   12.381747   2.423008   6.843073
326  326  1     1.0000   12.381747   2.423008   20.895790
327  327  1     1.0000   12.381747   12.483866   6.843073
328  328  1     1.0000   12.381747   12.483866   20.895790
329  329  1     1.0000   1.292705   7.185642   6.966616
330  330  1     1.0000   1.292705   7.185642   21.019333
331  331  1     1.0000   1.292705   17.246499   6.966616
332  332  1     1.0000   1.292705   17.246499   21.019333
333  333  1     1.0000   12.208441   7.185642   6.966616
334  334  1     1.0000   12.208441   7.185642   21.019333
335  335  1     1.0000   12.208441   17.246499   6.966616
336  336  1     1.0000   12.208441   17.246499   21.019333
337  337  1     1.0000   4.111715   2.266901   6.842621
338  338  1     1.0000   4.111715   2.266901   20.895338
339  339  1     1.0000   4.111715   12.327759   6.842621
340  340  1     1.0000   4.111715   12.327759   20.895338
341  341  1     1.0000   15.027451   2.266901   6.842621
342  342  1     1.0000   15.027451   2.266901   20.895338
343  343  1     1.0000   15.027451   12.327759   6.842621
344  344  1     1.0000   15.027451   12.327759   20.895338
345  345  1     1.0000   4.051307   7.270812   6.836138
346  346  1     1.0000   4.051307   7.270812   20.888855
347  347  1     1.0000   4.051307   17.331670   6.836138
348  348  1     1.0000   4.051307   17.331670   20.888855
349  349  1     1.0000   14.967043   7.270812   6.836138
350  350  1     1.0000   14.967043   7.270812   20.888855
351  351  1     1.0000   14.967043   17.331670   6.836138
352  352  1     1.0000   14.967043   17.331670   20.888855
353  353  1     1.0000   6.747889   2.212388   7.229486
354  354  1     1.0000   6.747889   2.212388   21.282202
355  355  1     1.0000   6.747889   12.273245   7.229486
356  356  1     1.0000   6.747889   12.273245   21.282202
357  357  1     1.0000   17.663625   2.212388   7.229486
358  358  1     1.0000   17.663625   2.212388   21.282202
359  359  1     1.0000   17.663625   12.273245   7.229486
360  360  1     1.0000   17.663625   12.273245   21.282202
361  361  1     1.0000   6.727124   7.283915   6.882056
362  362  1     1.0000   6.727124   7.283915   20.934772
363  363  1     1.0000   6.727124   17.344773   6.882056
364  364  1     1.0000   6.727124   17.344773   20.934772
365  365  1     1.0000   17.642860   7.283915   6.882056
366  366  1     1.0000   17.642860   7.283915   20.934772
367  367  1     1.0000   17.642860   17.344773   6.882056
368  368  1     1.0000   17.642860   17.344773   20.934772
369  369  1     1.0000   9.805458   2.149948   6.934772
370  370  1     1.0000   9.805458   2.149948   20.987489
371  371  1     1.0000   9.805458   12.210806   6.934772
372  372  1     1.0000   9.805458   12.210806   20.987489
373  373  1     1.0000   20.721195   2.149948   6.934772
374  374  1     1.0000   20.721195   2.149948   20.987489
375  375  1     1.0000   20.721195   12.210806   6.934772
376  376  1     1.0000   20.721195   12.210806   20.987489
377  377  1     1.0000   9.413686   7.284706   7.230852
378  378  1     1.0000   9.413686   7.284706   21.283569
379  379  1     1.0000   9.413686   17.345564   7.230852
380  380  1     1.0000   9.413686   17.345564   21.283569
381  381  1     1.0000   20.329422   7.284706   7.230852
382  382  1     1.0000   20.329422   7.284706   21.283569
383  383  1     1.0000   20.329422   17.345564   7.230852
384  384  1     1.0000   20.329422   17.345564   21.283569
385  385  2     3.0000   0.129423   4.452802   13.928036
386  386  2     3.0000   0.129423   4.452802   27.980752
387  387  2     3.0000   0.129423   14.513660   13.928036
388  388  2     3.0000   0.129423   14.513660   27.980752
389  389  2     3.0000   11.045159   4.452802   13.928036
390  390  2     3.0000   11.045159   4.452802   27.980752
391  391  2     3.0000   11.045159   14.513660   13.928036
392  392  2     3.0000   11.045159   14.513660   27.980752
393  393  2     3.0000   10.703341   9.804267   0.059148
394  394  2     3.0000   10.703341   9.804267   14.111865
395  395  2     3.0000   10.703341   19.865124   0.059148
396  396  2     3.0000   10.703341   19.865124   14.111865
397  397  2     3.0000   21.619077   9.804267   0.059148
398  398  2     3.0000   21.619077   9.804267   14.111865
399  399  2     3.0000   21.619077   19.865124   0.059148
400  400  2     3.0000   21.619077   19.865124   14.111865
401  401  2     3.0000   2.855859   4.607952   14.023700
402  402  2     3.0000   2.855859   4.607952   28.076417
403  403  2     3.0000   2.855859   14.668809   14.023700
404  404  2     3.0000   2.855859   14.668809   28.076417
405  405  2     3.0000   13.771596   4.607952   14.023700
406  406  2     3.0000   13.771596   4.607952   28.076417
407  407  2     3.0000   13.771596   14.668809   14.023700
408  408  2     3.0000   13.771596   14.668809   28.076417
409  409  2     3.0000   2.619327   9.719899   13.998044
410  410  2     3.0000   2.619327   9.719899   28.050761
411  411  2     3.0000   2.619327   19.780757   13.998044
412  412  2     3.0000   2.619327   19.780757   28.050761
413  413  2     3.0000   13.535063   9.719899   13.998044
414  414  2     3.0000   13.535063   9.719899   28.050761
415  415  2     3.0000   13.535063   19.780757   13.998044
416  416  2     3.0000   13.535063   19.780757   28.050761
417  417  2     3.0000   5.619699   4.817846   0.141204
418  418  2     3.0000   5.619699   4.817846   14.193921
419  419  2     3.0000   5.619699   14.878703   0.141204
420  420  2     3.0000   5.619699   14.878703   14.193921
421  421  2     3.0000   16.535435   4.817846   0.141204
422  422  2     3.0000   16.535435   4.817846   14.193921
423  423  2     3.0000   16.535435   14.878703   0.141204
424  424  2     3.0000   16.535435   14.878703   14.193921
425  425  2     3.0000   5.323005   9.711199   0.105131
426  426  2     3.0000   5.323005   9.711199   14.157847
427  427  2     3.0000   5.323005   19.772057   0.105131
428  428  2     3.0000   5.323005   19.772057   14.157847
429  429  2     3.0000   16.238741   9.711199   0.105131
430  430  2     3.0000   16.238741   9.711199   14.157847
431  431  2     3.0000   16.238741   19.772057   0.105131
432  432  2     3.0000   16.238741   19.772057   14.157847
433  433  2     3.0000   8.369786   4.756877   0.207277
434  434  2     3.0000   8.369786   4.756877   14.259993
435  435  2     3.0000   8.369786   14.817735   0.207277
436  436  2     3.0000   8.369786   14.817735   14.259993
437  437  2     3.0000   19.285523   4.756877   0.207277
438  438  2     3.0000   19.285523   4.756877   14.259993
439  439  2     3.0000   19.285523   14.817735   0.207277
440  440  2     3.0000   19.285523   14.817735   14.259993
441  441  2     3.0000   7.957965   9.754730   14.039301
442  442  2     3.0000   7.957965   9.754730   28.092018
443  443  2     3.0000   7.957965   19.815588   14.039301
444  444  2     3.0000   7.957965   19.815588   28.092018
445  445  2     3.0000   18.873701   9.754730   14.039301
446  446  2     3.0000   18.873701   9.754730   28.092018
447  447  2     3.0000   18.873701   19.815588   14.039301
448  448  2     3.0000   18.873701   19.815588   28.092018
449  449  2     3.0000   1.417328   1.980867   13.944538
450  450  2     3.0000   1.417328   1.980867   27.997255
451  451  2     3.0000   1.417328   12.041725   13.944538
452  452  2     3.0000   1.417328   12.041725   27.997255
453  453  2     3.0000   12.333064   1.980867   13.944538
454  454  2     3.0000   12.333064   1.980867   27.997255
455  455  2     3.0000   12.333064   12.041725   13.944538
456  456  2     3.0000   12.333064   12.041725   27.997255
457  457  2     3.0000   1.242154   7.045927   13.984220
458  458  2     3.0000   1.242154   7.045927   28.036937
459  459  2     3.0000   1.242154   17.106785   13.984220
460  460  2     3.0000   1.242154   17.106785   28.036937
461  461  2     3.0000   12.157890   7.045927   13.984220
462  462  2     3.0000   12.157890   7.045927   28.036937
463  463  2     3.0000   12.157890   17.106785   13.984220
464  464  2     3.0000   12.157890   17.106785   28.036937
465  465  2     3.0000   4.054010   2.271401   13.894845
466  466  2     3.0000   4.054010   2.271401   27.947561
467  467  2     3.0000   4.054010   12.332259   13.894845
468  468  2     3.0000   4.054010   12.332259   27.947561
469  469  2     3.0000   14.969746   2.271401   13.894845
470  470  2     3.0000   14.969746   2.271401   27.947561
471  471  2     3.0000   14.969746   12.332259   13.894845
472  472  2     3.0000   14.969746   12.332259   27.947561
473  473  2     3.0000   4.102337   7.308520   0.078883
474  474  2     3.0000   4.102337   7.308520   14.131600
475  475  2     3.0000   4.102337   17.369378   0.078883
476  476  2     3.0000   4.102337   17.369378   14.131600
477  477  2     3.0000   15.018073   7.308520   0.078883
478  478  2     3.0000   15.018073   7.308520   14.131600
479  479  2     3.0000   15.018073   17.369378   0.078883
480  480  2     3.0000   15.018073   17.369378   14.131600
481  481  2     3.0000   6.823810   2.169229   0.052862
482  482  2     3.0000   6.823810   2.169229   14.105579
483  483  2     3.0000   6.823810   12.230086   0.052862
484  484  2     3.0000   6.823810   12.230086   14.105579
485  485  2     3.0000   17.739546   2.169229   0.052862
486  486  2     3.0000   17.739546   2.169229   14.105579
487  487  2     3.0000   17.739546   12.230086   0.052862
488  488  2     3.0000   17.739546   12.230086   14.105579
489  489  2     3.0000   6.731215   7.258558   0.082667
490  490  2     3.0000   6.731215   7.258558   14.135384
491  491  2     3.0000   6.731215   17.319416   0.082667
492  492  2     3.0000   6.731215   17.319416   14.135384
493  493  2     3.0000   17.646951   7.258558   0.082667
494  494  2     3.0000   17.646951   7.258558   14.135384
495  495  2     3.0000   17.646951   17.319416   0.082667
496  496  2     3.0000   17.646951   17.319416   14.135384
497  497  2     3.0000   9.551953   2.082402   0.226948
498  498  2     3.0000   9.551953   2.082402   14.279665
499  499  2     3.0000   9.551953   12.143260   0.226948
500  500  2     3.0000   9.551953   12.143260   14.279665
501  501  2     3.0000   20.467689   2.082402   0.226948
502  502  2     3.0000   20.467689   2.082402   14.279665
503  503  2     3.0000   20.467689   12.143260   0.226948
504  504  2     3.0000   20.467689   12.143260   14.279665
505  505  2     3.0000   9.550093   7.264153   13.994817
506  506  2     3.0000   9.550093   7.264153   28.047534
507  507  2     3.0000   9.550093   17.325011   13.994817
508  508  2     3.0000   9.550093   17.325011   28.047534
509  509  2     3.0000   20.465829   7.264153   13.994817
510  510  2     3.0000   20.465829   7.264153   28.047534
511  511  2     3.0000   20.465829   17.325011   13.994817
512  512  2     3.0000   20.465829   17.325011   28.047534
513  513  2     3.0000   1.402005   0.374695   4.700134
514  514  2     3.0000   1.402005   0.374695   18.752851
515  515  2     3.0000   1.402005   10.435553   4.700134