title

2304   atoms
768   bonds

4   atom types
1   bond types


0.0 21.831472 xlo xhi
0.0 20.121716 ylo yhi
0.0 28.105434 zlo zhi

0.00000 0.00000 0.00000 xy xz yz 

Masses

1   6.94100 # Li
2  58.69340 # Ni
3  14.39910 # O core
4   1.59990 # O shell

Atoms

1    1    1     1.0000   2.833447   1.162474   2.499307
2    2    1     1.0000   2.833447   1.162474   16.552024
3    3    1     1.0000   2.833447   11.223332   2.499307
4    4    1     1.0000   2.833447   11.223332   16.552024
5    5    1     1.0000   13.749183   1.162474   2.499307
6    6    1     1.0000   13.749183   1.162474   16.552024
7    7    1     1.0000   13.749183   11.223332   2.499307
8    8    1     1.0000   13.749183   11.223332   16.552024
9    9    1     1.0000   2.708637   6.427256   2.492271
10   10   1     1.0000   2.708637   6.427256   16.544988
11   11   1     1.0000   2.708637   16.488114   2.492271
12   12   1     1.0000   2.708637   16.488114   16.544988
13   13   1     1.0000   13.624374   6.427256   2.492271
14   14   1     1.0000   13.624374   6.427256   16.544988
15   15   1     1.0000   13.624374   16.488114   2.492271
16   16   1     1.0000   13.624374   16.488114   16.544988
17   17   1     1.0000   5.526457   1.412906   2.327738
18   18   1     1.0000   5.526457   1.412906   16.380455
19   19   1     1.0000   5.526457   11.473764   2.327738
20   20   1     1.0000   5.526457   11.473764   16.380455
21   21   1     1.0000   16.442194   1.412906   2.327738
22   22   1     1.0000   16.442194   1.412906   16.380455
23   23   1     1.0000   16.442194   11.473764   2.327738
24   24   1     1.0000   16.442194   11.473764   16.380455
25   25   1     1.0000   5.241492   6.583637   2.256379
26   26   1     1.0000   5.241492   6.583637   16.309096
27   27   1     1.0000   5.241492   16.644495   2.256379
28   28   1     1.0000   5.241492   16.644495   16.309096
29   29   1     1.0000   16.157228   6.583637   2.256379
30   30   1     1.0000   16.157228   6.583637   16.309096
31   31   1     1.0000   16.157228   16.644495   2.256379
32   32   1     1.0000   16.157228   16.644495   16.309096
33   33   1     1.0000   8.191008   1.348099   2.382351
34   34   1     1.0000   8.191008   1.348099   16.435068
35   35   1     1.0000   8.191008   11.408957   2.382351
36   36   1     1.0000   8.191008   11.408957   16.435068
37   37   1     1.0000   19.106744   1.348099   2.382351
38   38   1     1.0000   19.106744   1.348099   16.435068
39   39   1     1.0000   19.106744   11.408957   2.382351
40   40   1     1.0000   19.106744   11.408957   16.435068
41   41   1     1.0000   7.801031   6.263039   2.245407
42   42   1     1.0000   7.801031   6.263039   16.298124
43   43   1     1.0000   7.801031   16.323897   2.245407
44   44   1     1.0000   7.801031   16.323897   16.298124
45   45   1     1.0000   18.716767   6.263039   2.245407
46   46   1     1.0000   18.716767   6.263039   16.298124
47   47   1     1.0000   18.716767   16.323897   2.245407
48   48   1     1.0000   18.716767   16.323897   16.298124
49   49   1     1.0000   10.699769   1.543554   2.476397
50   50   1     1.0000   10.699769   1.543554   16.529114
51   51   1     1.0000   10.699769   11.604412   2.476397
52   52   1     1.0000   10.699769   11.604412   16.529114
53   53   1     1.0000   21.615505   1.543554   2.476397
54   54   1     1.0000   21.615505   1.543554   16.529114
55   55   1     1.0000   21.615505   11.604412   2.476397
56   56   1     1.0000   21.615505   11.604412   16.529114
57   57   1     1.0000   10.877610   6.203705   2.448118
58   58   1     1.0000   10.877610   6.203705   16.500835
59   59   1     1.0000   10.877610   16.264563   2.448118
60   60   1     1.0000   10.877610   16.264563   16.500835
61   61   1     1.0000   21.793346   6.203705   2.448118
62   62   1     1.0000   21.793346   6.203705   16.500835
63   63   1     1.0000   21.793346   16.264563   2.448118
64   64   1     1.0000   21.793346   16.264563   16.500835
65   65   1     1.0000   1.397443   3.942222   2.326918
66   66   1     1.0000   1.397443   3.942222   16.379635
67   67   1     1.0000   1.397443   14.003079   2.326918
68   68   1     1.0000   1.397443   14.003079   16.379635
69   69   1     1.0000   12.313179   3.942222   2.326918
70   70   1     1.0000   12.313179   3.942222   16.379635
71   71   1     1.0000   12.313179   14.003079   2.326918
72   72   1     1.0000   12.313179   14.003079   16.379635
73   73   1     1.0000   1.312905   8.897140   2.484783
74   74   1     1.0000   1.312905   8.897140   16.537500
75   75   1     1.0000   1.312905   18.957997   2.484783
76   76   1     1.0000   1.312905   18.957997   16.537500
77   77   1     1.0000   12.228642   8.897140   2.484783
78   78   1     1.0000   12.228642   8.897140   16.537500
79   79   1     1.0000   12.228642   18.957997   2.484783
80   80   1     1.0000   12.228642   18.957997   16.537500
81   81   1     1.0000   4.122879   4.182190   2.137297
82   82   1     1.0000   4.122879   4.182190   16.190013
83   83   1     1.0000   4.122879   14.243047   2.137297
84   84   1     1.0000   4.122879   14.243047   16.190013
85   85   1     1.0000   15.038616   4.182190   2.137297
86   86   1     1.0000   15.038616   4.182190   16.190013
87   87   1     1.0000   15.038616   14.243047   2.137297
88   88   1     1.0000   15.038616   14.243047   16.190013
89   89   1     1.0000   4.242795   9.071539   2.291876
90   90   1     1.0000   4.242795   9.071539   16.344593
91   91   1     1.0000   4.242795   19.132397   2.291876
92   92   1     1.0000   4.242795   19.132397   16.344593
93   93   1     1.0000   15.158532   9.071539   2.291876
94   94   1     1.0000   15.158532   9.071539   16.344593
95   95   1     1.0000   15.158532   19.132397   2.291876
96   96   1     1.0000   15.158532   19.132397   16.344593
97   97   1     1.0000   6.905367   3.887139   2.506367
98   98   1     1.0000   6.905367   3.887139   16.559084
99   99   1     1.0000   6.905367   13.947997   2.506367
100  100  1     1.0000   6.905367   13.947997   16.559084
101  101  1     1.0000   17.821103   3.887139   2.506367
102  102  1     1.0000   17.821103   3.887139   16.559084
103  103  1     1.0000   17.821103   13.947997   2.506367
104  104  1     1.0000   17.821103   13.947997   16.559084
105  105  1     1.0000   7.087563   8.862700   2.321622
106  106  1     1.0000   7.087563   8.862700   16.374338
107  107  1     1.0000   7.087563   18.923557   2.321622
108  108  1     1.0000   7.087563   18.923557   16.374338
109  109  1     1.0000   18.003299   8.862700   2.321622
110  110  1     1.0000   18.003299   8.862700   16.374338
111  111  1     1.0000   18.003299   18.923557   2.321622
112  112  1     1.0000   18.003299   18.923557   16.374338
113  113  1     1.0000   9.590472   3.748415   2.445305
114  114  1     1.0000   9.590472   3.748415   16.498022
115  115  1     1.0000   9.590472   13.809272   2.445305
116  116  1     1.0000   9.590472   13.809272   16.498022
117  117  1     1.0000   20.506208   3.748415   2.445305
118  118  1     1.0000   20.506208   3.748415   16.498022
119  119  1     1.0000   20.506208   13.809272   2.445305
120  120  1     1.0000   20.506208   13.809272   16.498022
121  121  1     1.0000   9.723968   8.695307   2.345463
122  122  1     1.0000   9.723968   8.695307   16.398179
123  123  1     1.0000   9.723968   18.756165   2.345463
124  124  1     1.0000   9.723968   18.756165   16.398179
125  125  1     1.0000   20.639704   8.695307   2.345463
126  126  1     1.0000   20.639704   8.695307   16.398179
127  127  1     1.0000   20.639704   18.756165   2.345463
128  128  1     1.0000   20.639704   18.756165   16.398179
129  129  1     1.0000   1.558992   0.802707   11.723441
130  130  1     1.0000   1.558992   0.802707   25.776158
131  131  1     1.0000   1.558992   10.863565   11.723441
132  132  1     1.0000   1.558992   10.863565   25.776158
133  133  1     1.0000   12.474728   0.802707   11.723441
134  134  1     1.0000   12.474728   0.802707   25.776158
135  135  1     1.0000   12.474728   10.863565   11.723441
136  136  1     1.0000   12.474728   10.863565   25.776158
137  137  1     1.0000   1.456773   5.832537   11.897906
138  138  1     1.0000   1.456773   5.832537   25.950623
139  139  1     1.0000   1.456773   15.893395   11.897906
140  140  1     1.0000   1.456773   15.893395   25.950623
141  141  1     1.0000   12.372509   5.832537   11.897906
142  142  1     1.0000   12.372509   5.832537   25.950623
143  143  1     1.0000   12.372509   15.893395   11.897906
144  144  1     1.0000   12.372509   15.893395   25.950623
145  145  1     1.0000   4.108320   0.831517   11.466239
146  146  1     1.0000   4.108320   0.831517   25.518956
147  147  1     1.0000   4.108320   10.892375   11.466239
148  148  1     1.0000   4.108320   10.892375   25.518956
149  149  1     1.0000   15.024057   0.831517   11.466239
150  150  1     1.0000   15.024057   0.831517   25.518956
151  151  1     1.0000   15.024057   10.892375   11.466239
152  152  1     1.0000   15.024057   10.892375   25.518956
153  153  1     1.0000   4.017246   5.979413   11.501375
154  154  1     1.0000   4.017246   5.979413   25.554092
155  155  1     1.0000   4.017246   16.040271   11.501375
156  156  1     1.0000   4.017246   16.040271   25.554092
157  157  1     1.0000   14.932982   5.979413   11.501375
158  158  1     1.0000   14.932982   5.979413   25.554092
159  159  1     1.0000   14.932982   16.040271   11.501375
160  160  1     1.0000   14.932982   16.040271   25.554092
161  161  1     1.0000   7.076180   0.458286   11.791668
162  162  1     1.0000   7.076180   0.458286   25.844384
163  163  1     1.0000   7.076180   10.519143   11.791668
164  164  1     1.0000   7.076180   10.519143   25.844384
165  165  1     1.0000   17.991916   0.458286   11.791668
166  166  1     1.0000   17.991916   0.458286   25.844384
167  167  1     1.0000   17.991916   10.519143   11.791668
168  168  1     1.0000   17.991916   10.519143   25.844384
169  169  1     1.0000   6.815601   5.317831   11.410118
170  170  1     1.0000   6.815601   5.317831   25.462834
171  171  1     1.0000   6.815601   15.378689   11.410118
172  172  1     1.0000   6.815601   15.378689   25.462834
173  173  1     1.0000   17.731337   5.317831   11.410118
174  174  1     1.0000   17.731337   5.317831   25.462834
175  175  1     1.0000   17.731337   15.378689   11.410118
176  176  1     1.0000   17.731337   15.378689   25.462834
177  177  1     1.0000   9.605684   0.794060   11.796379
178  178  1     1.0000   9.605684   0.794060   25.849096
179  179  1     1.0000   9.605684   10.854918   11.796379
180  180  1     1.0000   9.605684   10.854918   25.849096
181  181  1     1.0000   20.521420   0.794060   11.796379
182  182  1     1.0000   20.521420   0.794060   25.849096
183  183  1     1.0000   20.521420   10.854918   11.796379
184  184  1     1.0000   20.521420   10.854918   25.849096
185  185  1     1.0000   9.296515   5.628211   11.834654
186  186  1     1.0000   9.296515   5.628211   25.887371
187  187  1     1.0000   9.296515   15.689069   11.834654
188  188  1     1.0000   9.296515   15.689069   25.887371
189  189  1     1.0000   20.212251   5.628211   11.834654
190  190  1     1.0000   20.212251   5.628211   25.887371
191  191  1     1.0000   20.212251   15.689069   11.834654
192  192  1     1.0000   20.212251   15.689069   25.887371
193  193  1     1.0000   0.155345   2.885099   11.816669
194  194  1     1.0000   0.155345   2.885099   25.869386
195  195  1     1.0000   0.155345   12.945957   11.816669
196  196  1     1.0000   0.155345   12.945957   25.869386
197  197  1     1.0000   11.071081   2.885099   11.816669
198  198  1     1.0000   11.071081   2.885099   25.869386
199  199  1     1.0000   11.071081   12.945957   11.816669
200  200  1     1.0000   11.071081   12.945957   25.869386
201  201  1     1.0000   0.217365   8.092772   11.885288
202  202  1     1.0000   0.217365   8.092772   25.938005
203  203  1     1.0000   0.217365   18.153630   11.885288
204  204  1     1.0000   0.217365   18.153630   25.938005
205  205  1     1.0000   11.133102   8.092772   11.885288
206  206  1     1.0000   11.133102   8.092772   25.938005
207  207  1     1.0000   11.133102   18.153630   11.885288
208  208  1     1.0000   11.133102   18.153630   25.938005
209  209  1     1.0000   2.925976   3.105298   11.612555
210  210  1     1.0000   2.925976   3.105298   25.665272
211  211  1     1.0000   2.925976   13.166156   11.612555
212  212  1     1.0000   2.925976   13.166156   25.665272
213  213  1     1.0000   13.841712   3.105298   11.612555
214  214  1     1.0000   13.841712   3.105298   25.665272
215  215  1     1.0000   13.841712   13.166156   11.612555
216  216  1     1.0000   13.841712   13.166156   25.665272
217  217  1     1.0000   2.607578   8.241856   11.792872
218  218  1     1.0000   2.607578   8.241856   25.845589
219  219  1     1.0000   2.607578   18.302714   11.792872
220  220  1     1.0000   2.607578   18.302714   25.845589
221  221  1     1.0000   13.523314   8.241856   11.792872
222  222  1     1.0000   13.523314   8.241856   25.845589
223  223  1     1.0000   13.523314   18.302714   11.792872
224  224  1     1.0000   13.523314   18.302714   25.845589
225  225  1     1.0000   5.547633   2.892759   12.020246
226  226  1     1.0000   5.547633   2.892759   26.072963
227  227  1     1.0000   5.547633   12.953617   12.020246
228  228  1     1.0000   5.547633   12.953617   26.072963
229  229  1     1.0000   16.463369   2.892759   12.020246
230  230  1     1.0000   16.463369   2.892759   26.072963
231  231  1     1.0000   16.463369   12.953617   12.020246
232  232  1     1.0000   16.463369   12.953617   26.072963
233  233  1     1.0000   5.529420   8.249501   11.538785
234  234  1     1.0000   5.529420   8.249501   25.591502
235  235  1     1.0000   5.529420   18.310359   11.538785
236  236  1     1.0000   5.529420   18.310359   25.591502
237  237  1     1.0000   16.445156   8.249501   11.538785
238  238  1     1.0000   16.445156   8.249501   25.591502
239  239  1     1.0000   16.445156   18.310359   11.538785
240  240  1     1.0000   16.445156   18.310359   25.591502
241  241  1     1.0000   8.207630   2.852795   12.019861
242  242  1     1.0000   8.207630   2.852795   26.072578
243  243  1     1.0000   8.207630   12.913653   12.019861
244  244  1     1.0000   8.207630   12.913653   26.072578
245  245  1     1.0000   19.123366   2.852795   12.019861
246  246  1     1.0000   19.123366   2.852795   26.072578
247  247  1     1.0000   19.123366   12.913653   12.019861
248  248  1     1.0000   19.123366   12.913653   26.072578
249  249  1     1.0000   8.192573   8.120897   11.349159
250  250  1     1.0000   8.192573   8.120897   25.401876
251  251  1     1.0000   8.192573   18.181755   11.349159
252  252  1     1.0000   8.192573   18.181755   25.401876
253  253  1     1.0000   19.108309   8.120897   11.349159
254  254  1     1.0000   19.108309   8.120897   25.401876
255  255  1     1.0000   19.108309   18.181755   11.349159
256  256  1     1.0000   19.108309   18.181755   25.401876
257  257  1     1.0000   10.898015   4.488548   7.122608
258  258  1     1.0000   10.898015   4.488548   21.175324
259  259  1     1.0000   10.898015   14.549406   7.122608
260  260  1     1.0000   10.898015   14.549406   21.175324
261  261  1     1.0000   21.813751   4.488548   7.122608
262  262  1     1.0000   21.813751   4.488548   21.175324
263  263  1     1.0000   21.813751   14.549406   7.122608
264  264  1     1.0000   21.813751   14.549406   21.175324
265  265  1     1.0000   0.309653   9.468689   7.287917
266  266  1     1.0000   0.309653   9.468689   21.340634
267  267  1     1.0000   0.309653   19.529546   7.287917
268  268  1     1.0000   0.309653   19.529546   21.340634
269  269  1     1.0000   11.225390   9.468689   7.287917
270  270  1     1.0000   11.225390   9.468689   21.340634
271  271  1     1.0000   11.225390   19.529546   7.287917
272  272  1     1.0000   11.225390   19.529546   21.340634
273  273  1     1.0000   2.582883   4.922599   6.642301
274  274  1     1.0000   2.582883   4.922599   20.695018
275  275  1     1.0000   2.582883   14.983457   6.642301
276  276  1     1.0000   2.582883   14.983457   20.695018
277  277  1     1.0000   13.498619   4.922599   6.642301
278  278  1     1.0000   13.498619   4.922599   20.695018
279  279  1     1.0000   13.498619   14.983457   6.642301
280  280  1     1.0000   13.498619   14.983457   20.695018
281  281  1     1.0000   2.592802   9.901520   6.865672
282  282  1     1.0000   2.592802   9.901520   20.918389
283  283  1     1.0000   2.592802   19.962378   6.865672
284  284  1     1.0000   2.592802   19.962378   20.918389
285  285  1     1.0000   13.508538   9.901520   6.865672
286  286  1     1.0000   13.508538   9.901520   20.918389
287  287  1     1.0000   13.508538   19.962378   6.865672
288  288  1     1.0000   13.508538   19.962378   20.918389
289  289  1     1.0000   5.410481   4.800110   6.820629
290  290  1     1.0000   5.410481   4.800110   20.873345
291  291  1     1.0000   5.410481   14.860968   6.820629
292  292  1     1.0000   5.410481   14.860968   20.873345
293  293  1     1.0000   16.326217   4.800110   6.820629
294  294  1     1.0000   16.326217   4.800110   20.873345
295  295  1     1.0000   16.326217   14.860968   6.820629
296  296  1     1.0000   16.326217   14.860968   20.873345
297  297  1     1.0000   5.461554   9.818915   7.222690
298  298  1     1.0000   5.461554   9.818915   21.275407
299  299  1     1.0000   5.461554   19.879772   7.222690
300  300  1     1.0000   5.461554   19.879772   21.275407
301  301  1     1.0000   16.377291   9.818915   7.222690
302  302  1     1.0000   16.377291   9.818915   21.275407
303  303  1     1.0000   16.377291   19.879772   7.222690
304  304  1     1.0000   16.377291   19.879772   21.275407
305  305  1     1.0000   8.192018   4.604476   6.954003
306  306  1     1.0000   8.192018   4.604476   21.006720
307  307  1     1.0000   8.192018   14.665334   6.954003
308  308  1     1.0000   8.192018   14.665334   21.006720
309  309  1     1.0000   19.107755   4.604476   6.954003
310  310  1     1.0000   19.107755   4.604476   21.006720
311  311  1     1.0000   19.107755   14.665334   6.954003
312  312  1     1.0000   19.107755   14.665334   21.006720
313  313  1     1.0000   8.380717   9.585167   6.992874
314  314  1     1.0000   8.380717   9.585167   21.045591
315  315  1     1.0000   8.380717   19.646025   6.992874
316  316  1     1.0000   8.380717   19.646025   21.045591
317  317  1     1.0000   19.296453   9.585167   6.992874
318  318  1     1.0000   19.296453   9.585167   21.045591
319  319  1     1.0000   19.296453   19.646025   6.992874
320  320  1     1.0000   19.296453   19.646025   21.045591
321  321  1     1.0000   1.570247   2.305788   7.254430
322  322  1     1.0000   1.570247   2.305788   21.307147
323  323  1     1.0000   1.570247   12.366646   7.254430
324  324  1     1.0000   1.570247   12.366646   21.307147
325  325  1     1.0000   12.485983   2.305788   7.254430
326  326  1     1.0000   12.485983   2.305788   21.307147
327  327  1     1.0000   12.485983   12.366646   7.254430
328  328  1     1.0000   12.485983   12.366646   21.307147
329  329  1     1.0000   1.336940   7.016882   7.162100
330  330  1     1.0000   1.336940   7.016882   21.214816
331  331  1     1.0000   1.336940   17.077740   7.162100
332  332  1     1.0000   1.336940   17.077740   21.214816
333  333  1     1.0000   12.252676   7.016882   7.162100
334  334  1     1.0000   12.252676   7.016882   21.214816
335  335  1     1.0000   12.252676   17.077740   7.162100
336  336  1     1.0000   12.252676   17.077740   21.214816
337  337  1     1.0000   4.046338   2.410788   6.915436
338  338  1     1.0000   4.046338   2.410788   20.968153
339  339  1     1.0000   4.046338   12.471646   6.915436
340  340  1     1.0000   4.046338   12.471646   20.968153
341  341  1     1.0000   14.962075   2.410788   6.915436
342  342  1     1.0000   14.962075   2.410788   20.968153
343  343  1     1.0000   14.962075   12.471646   6.915436
344  344  1     1.0000   14.962075   12.471646   20.968153
345  345  1     1.0000   3.987877   7.357290   7.057694
346  346  1     1.0000   3.987877   7.357290   21.110411
347  347  1     1.0000   3.987877   17.418148   7.057694
348  348  1     1.0000   3.987877   17.418148   21.110411
349  349  1     1.0000   14.903613   7.357290   7.057694
350  350  1     1.0000   14.903613   7.357290   21.110411
351  351  1     1.0000   14.903613   17.418148   7.057694
352  352  1     1.0000   14.903613   17.418148   21.110411
353  353  1     1.0000   6.987571   2.248156   6.733630
354  354  1     1.0000   6.987571   2.248156   20.786347
355  355  1     1.0000   6.987571   12.309014   6.733630
356  356  1     1.0000   6.987571   12.309014   20.786347
357  357  1     1.0000   17.903307   2.248156   6.733630
358  358  1     1.0000   17.903307   2.248156   20.786347
359  359  1     1.0000   17.903307   12.309014   6.733630
360  360  1     1.0000   17.903307   12.309014   20.786347
361  361  1     1.0000   6.740501   7.123075   7.070749
362  362  1     1.0000   6.740501   7.123075   21.123466
363  363  1     1.0000   6.740501   17.183933   7.070749
364  364  1     1.0000   6.740501   17.183933   21.123466
365  365  1     1.0000   17.656237   7.123075   7.070749
366  366  1     1.0000   17.656237   7.123075   21.123466
367  367  1     1.0000   17.656237   17.183933   7.070749
368  368  1     1.0000   17.656237   17.183933   21.123466
369  369  1     1.0000   9.664410   1.998008   6.953858
370  370  1     1.0000   9.664410   1.998008   21.006575
371  371  1     1.0000   9.664410   12.058866   6.953858
372  372  1     1.0000   9.664410   12.058866   21.006575
373  373  1     1.0000   20.580146   1.998008   6.953858
374  374  1     1.0000   20.580146   1.998008   21.006575
375  375  1     1.0000   20.580146   12.058866   6.953858
376  376  1     1.0000   20.580146   12.058866   21.006575
377  377  1     1.0000   9.569169   7.317089   6.943635
378  378  1     1.0000   9.569169   7.317089   20.996352
379  379  1     1.0000   9.569169   17.377946   6.943635
380  380  1     1.0000   9.569169   17.377946   20.996352
381  381  1     1.0000   20.484906   7.317089   6.943635
382  382  1     1.0000   20.484906   7.317089   20.996352
383  383  1     1.0000   20.484906   17.377946   6.943635
384  384  1     1.0000   20.484906   17.377946   20.996352
385  385  2     3.0000   10.774199   4.709957   0.199622
386  386  2     3.0000   10.774199   4.709957   14.252339
387  387  2     3.0000   10.774199   14.770815   0.199622
388  388  2     3.0000   10.774199   14.770815   14.252339
389  389  2     3.0000   21.689935   4.709957   0.199622
390  390  2     3.0000   21.689935   4.709957   14.252339
391  391  2     3.0000   21.689935   14.770815   0.199622
392  392  2     3.0000   21.689935   14.770815   14.252339
393  393  2     3.0000   10.859820   9.622671   0.309825
394  394  2     3.0000   10.859820   9.622671   14.362542
395  395  2     3.0000   10.859820   19.683529   0.309825
396  396  2     3.0000   10.859820   19.683529   14.362542
397  397  2     3.0000   21.775556   9.622671   0.309825
398  398  2     3.0000   21.775556   9.622671   14.362542
399  399  2     3.0000   21.775556   19.683529   0.309825
400  400  2     3.0000   21.775556   19.683529   14.362542
401  401  2     3.0000   2.884761   4.624058   0.003455
402  402  2     3.0000   2.884761   4.624058   14.056171
403  403  2     3.0000   2.884761   14.684916   0.003455
404  404  2     3.0000   2.884761   14.684916   14.056171
405  405  2     3.0000   13.800497   4.624058   0.003455
406  406  2     3.0000   13.800497   4.624058   14.056171
407  407  2     3.0000   13.800497   14.684916   0.003455
408  408  2     3.0000   13.800497   14.684916   14.056171
409  409  2     3.0000   2.732973   9.675941   14.039959
410  410  2     3.0000   2.732973   9.675941   28.092676
411  411  2     3.0000   2.732973   19.736799   14.039959
412  412  2     3.0000   2.732973   19.736799   28.092676
413  413  2     3.0000   13.648710   9.675941   14.039959
414  414  2     3.0000   13.648710   9.675941   28.092676
415  415  2     3.0000   13.648710   19.736799   14.039959
416  416  2     3.0000   13.648710   19.736799   28.092676
417  417  2     3.0000   5.579992   4.830126   13.953755
418  418  2     3.0000   5.579992   4.830126   28.006472
419  419  2     3.0000   5.579992   14.890984   13.953755
420  420  2     3.0000   5.579992   14.890984   28.006472
421  421  2     3.0000   16.495728   4.830126   13.953755
422  422  2     3.0000   16.495728   4.830126   28.006472
423  423  2     3.0000   16.495728   14.890984   13.953755
424  424  2     3.0000   16.495728   14.890984   28.006472
425  425  2     3.0000   5.314980   9.633865   13.896456
426  426  2     3.0000   5.314980   9.633865   27.949173
427  427  2     3.0000   5.314980   19.694723   13.896456
428  428  2     3.0000   5.314980   19.694723   27.949173
429  429  2     3.0000   16.230716   9.633865   13.896456
430  430  2     3.0000   16.230716   9.633865   27.949173
431  431  2     3.0000   16.230716   19.694723   13.896456
432  432  2     3.0000   16.230716   19.694723   27.949173
433  433  2     3.0000   8.202994   4.780213   0.103977
434  434  2     3.0000   8.202994   4.780213   14.156694
435  435  2     3.0000   8.202994   14.841070   0.103977
436  436  2     3.0000   8.202994   14.841070   14.156694
437  437  2     3.0000   19.118730   4.780213   0.103977
438  438  2     3.0000   19.118730   4.780213   14.156694
439  439  2     3.0000   19.118730   14.841070   0.103977
440  440  2     3.0000   19.118730   14.841070   14.156694
441  441  2     3.0000   7.989607   9.772674   0.129271
442  442  2     3.0000   7.989607   9.772674   14.181988
443  443  2     3.0000   7.989607   19.833532   0.129271
444  444  2     3.0000   7.989607   19.833532   14.181988
445  445  2     3.0000   18.905344   9.772674   0.129271
446  446  2     3.0000   18.905344   9.772674   14.181988
447  447  2     3.0000   18.905344   19.833532   0.129271
448  448  2     3.0000   18.905344   19.833532   14.181988
449  449  2     3.0000   1.374197   2.208293   0.102818
450  450  2     3.0000   1.374197   2.208293   14.155535
451  451  2     3.0000   1.374197   12.269151   0.102818
452  452  2     3.0000   1.374197   12.269151   14.155535
453  453  2     3.0000   12.289933   2.208293   0.102818
454  454  2     3.0000   12.289933   2.208293   14.155535
455  455  2     3.0000   12.289933   12.269151   0.102818
456  456  2     3.0000   12.289933   12.269151   14.155535
457  457  2     3.0000   1.308527   7.248453   0.176853
458  458  2     3.0000   1.308527   7.248453   14.229569
459  459  2     3.0000   1.308527   17.309311   0.176853
460  460  2     3.0000   1.308527   17.309311   14.229569
461  461  2     3.0000   12.224263   7.248453   0.176853
462  462  2     3.0000   12.224263   7.248453   14.229569
463  463  2     3.0000   12.224263   17.309311   0.176853
464  464  2     3.0000   12.224263   17.309311   14.229569
465  465  2     3.0000   4.002844   2.107319   0.033350
466  466  2     3.0000   4.002844   2.107319   14.086067
467  467  2     3.0000   4.002844   12.168176   0.033350
468  468  2     3.0000   4.002844   12.168176   14.086067
469  469  2     3.0000   14.918580   2.107319   0.033350
470  470  2     3.0000   14.918580   2.107319   14.086067
471  471  2     3.0000   14.918580   12.168176   0.033350
472  472  2     3.0000   14.918580   12.168176   14.086067
473  473  2     3.0000   4.079226   7.302072   13.731213
474  474  2     3.0000   4.079226   7.302072   27.783930
475  475  2     3.0000   4.079226   17.362930   13.731213
476  476  2     3.0000   4.079226   17.362930   27.783930
477  477  2     3.0000   14.994962   7.302072   13.731213
478  478  2     3.0000   14.994962   7.302072   27.783930
479  479  2     3.0000   14.994962   17.362930   13.731213
480  480  2     3.0000   14.994962   17.362930   27.783930
481  481  2     3.0000   6.730233   2.114784   0.146176
482  482  2     3.0000   6.730233   2.114784   14.198893
483  483  2     3.0000   6.730233   12.175642   0.146176
484  484  2     3.0000   6.730233   12.175642   14.198893
485  485  2     3.0000   17.645969   2.114784   0.146176
486  486  2     3.0000   17.645969   2.114784   14.198893
487  487  2     3.0000   17.645969   12.175642   0.146176
488  488  2     3.0000   17.645969   12.175642   14.198893
489  489  2     3.0000   6.711227   7.253935   13.730377
490  490  2     3.0000   6.711227   7.253935   27.783093
491  491  2     3.0000   6.711227   17.314793   13.730377
492  492  2     3.0000   6.711227   17.314793   27.783093
493  493  2     3.0000   17.626964   7.253935   13.730377
494  494  2     3.0000   17.626964   7.253935   27.783093
495  495  2     3.0000   17.626964   17.314793   13.730377
496  496  2     3.0000   17.626964   17.314793   27.783093
497  497  2     3.0000   9.614007   2.065393   0.097004
498  498  2     3.0000   9.614007   2.065393   14.149721
499  499  2     3.0000   9.614007   12.126251   0.097004
500  500  2     3.0000   9.614007   12.126251   14.149721
501  501  2     3.0000   20.529744   2.065393   0.097004
502  502  2     3.0000   20.529744   2.065393   14.149721
503  503  2     3.0000   20.529744   12.126251   0.097004
504  504  2     3.0000   20.529744   12.126251   14.149721
505  505  2     3.0000   9.579388   7.320766   14.006704
506  506  2     3.0000   9.579388   7.320766   28.059421
507  507  2     3.0000   9.579388   17.381623   14.006704
508  508  2     3.0000   9.579388   17.381623   28.059421
509  509  2     3.0000   20.495124   7.320766   14.006704
510  510  2     3.0000   20.495124   7.320766   28.059421
511  511  2     3.0000   20.495124   17.381623   14.006704
512  512  2     3.0000   20.495124   17.381623   28.059421
513  513  2     3.0000   1.406859   0.561176   4.859239
514  514  2     3.0000   1.406859   0.561176   18.911956
515  515  2     3.0000   1.406859   10.622034   4.859239