title

108   atoms
3   atom types

0.0 8.185318 xlo xhi
0.0 8.582575 ylo yhi
0.0 14.059069 zlo zhi

-4.09548 -0.00033 -0.31966 xy xz yz 

Masses

1   6.94100 # Li
2  58.69340 # Ni
3  15.99900 # O

Atoms

1    1    1     1.0000  -0.001116   1.622414   2.306790
2    2    1     1.0000   2.727322   1.623131   2.306568
3    3    1     1.0000   5.455762   1.623848   2.306345
4    4    1     1.0000  -1.366277   4.135969   2.252799
5    5    1     1.0000   1.362162   4.136686   2.252576
6    6    1     1.0000   4.090602   4.137403   2.252354
7    7    1     1.0000  -2.731456   6.649524   2.198783
8    8    1     1.0000  -0.003017   6.650242   2.198561
9    9    1     1.0000   2.725423   6.650959   2.198338
10   10   1     1.0000   2.728223  -0.159138   7.029185
11   11   1     1.0000   5.456663  -0.158421   7.028962
12   12   1     1.0000   8.185102  -0.157704   7.028740
13   13   1     1.0000   1.363056   2.354410   6.975165
14   14   1     1.0000   4.091494   2.355127   6.974942
15   15   1     1.0000   6.819933   2.355844   6.974720
16   16   1     1.0000  -0.002089   4.867946   6.921171
17   17   1     1.0000   2.726350   4.868662   6.920948
18   18   1     1.0000   5.454789   4.869380   6.920726
19   19   1     1.0000   1.364156   0.572219   11.692720
20   20   1     1.0000   4.092595   0.572937   11.692498
21   21   1     1.0000   6.821034   0.573654   11.692275
22   22   1     1.0000  -0.001030   3.085775   11.638701
23   23   1     1.0000   2.727410   3.086492   11.638478
24   24   1     1.0000   5.455848   3.087209   11.638255
25   25   1     1.0000  -1.366186   5.599325   11.584711
26   26   1     1.0000   1.362255   5.600042   11.584489
27   27   1     1.0000   4.090694   5.600759   11.584266
28   28   2     3.0000  -0.000390  -0.319376   14.053076
29   29   2     3.0000   2.728044  -0.318658   14.052854
30   30   2     3.0000   5.456490  -0.317940   14.052631
31   31   2     3.0000  -1.365584   2.194229   13.999081
32   32   2     3.0000   1.362856   2.194944   13.998859
33   33   2     3.0000   4.091296   2.195665   13.998635
34   34   2     3.0000  -2.730718   4.707720   13.945076
35   35   2     3.0000  -0.002279   4.708436   13.944853
36   36   2     3.0000   2.726167   4.709154   13.944630
37   37   2     3.0000   1.363464   0.730598   4.670018
38   38   2     3.0000   4.091899   0.731317   4.669796
39   39   2     3.0000   6.820342   0.732032   4.669572
40   40   2     3.0000  -0.001682   3.244198   4.616024
41   41   2     3.0000   2.726757   3.244915   4.615802
42   42   2     3.0000   5.455193   3.245634   4.615578
43   43   2     3.0000  -1.366845   5.757694   4.562013
44   44   2     3.0000   1.361596   5.758409   4.561791
45   45   2     3.0000   4.090037   5.759126   4.561568
46   46   2     3.0000  -0.000479   1.463714   9.333494
47   47   2     3.0000   2.727959   1.464432   9.333270
48   48   2     3.0000   5.456397   1.465151   9.333048
49   49   2     3.0000  -1.365635   3.977208   9.279487
50   50   2     3.0000   1.362809   3.977924   9.279263
51   51   2     3.0000   4.091247   3.978642   9.279041
52   52   2     3.0000  -2.730778   6.490804   9.225483
53   53   2     3.0000  -0.002339   6.491522   9.225260
54   54   2     3.0000   2.726104   6.492238   9.225038
55   55   3    -2.0000  -0.000751  -0.005942   3.642034
56   56   3    -2.0000   2.727683  -0.005223   3.641813
57   57   3    -2.0000   5.456124  -0.004506   3.641590
58   58   3    -2.0000  -1.365876   2.507666   3.588014
59   59   3    -2.0000   1.362565   2.508381   3.587793
60   60   3    -2.0000   4.091001   2.509101   3.587571
61   61   3    -2.0000  -2.731073   5.021157   3.533972
62   62   3    -2.0000  -0.002632   5.021873   3.533750
63   63   3    -2.0000   2.725810   5.022589   3.533529
64   64   3    -2.0000   1.363998   0.736739   1.025819
65   65   3    -2.0000   4.092437   0.737460   1.025597
66   66   3    -2.0000   6.820880   0.738175   1.025373
67   67   3    -2.0000  -0.001157   3.250344   0.971796
68   68   3    -2.0000   2.727285   3.251062   0.971574
69   69   3    -2.0000   5.455722   3.251782   0.971351
70   70   3    -2.0000  -1.366294   5.763848   0.917770
71   71   3    -2.0000   1.362151   5.764566   0.917548
72   72   3    -2.0000   4.090592   5.765283   0.917324
73   73   3    -2.0000   1.363921   0.727657   8.305784
74   74   3    -2.0000   4.092358   0.728376   8.305561
75   75   3    -2.0000   6.820800   0.729092   8.305340
76   76   3    -2.0000  -0.001210   3.241167   8.251752
77   77   3    -2.0000   2.727231   3.241885   8.251528
78   78   3    -2.0000   5.455666   3.242604   8.251308
79   79   3    -2.0000  -1.366385   5.754732   8.197755
80   80   3    -2.0000   1.362059   5.755448   8.197531
81   81   3    -2.0000   4.090499   5.756165   8.197310
82   82   3    -2.0000  -0.000952   1.466433   5.698349
83   83   3    -2.0000   2.727484   1.467151   5.698126
84   84   3    -2.0000   5.455921   1.467869   5.697904
85   85   3    -2.0000  -1.366125   3.980003   5.644335
86   86   3    -2.0000   1.362318   3.980718   5.644112
87   87   3    -2.0000   4.090754   3.981436   5.643890
88   88   3    -2.0000  -2.731276   6.493514   5.590302
89   89   3    -2.0000  -0.002838   6.494231   5.590079
90   90   3    -2.0000   2.725604   6.494945   5.589857
91   91   3    -2.0000  -0.001229   1.458488   12.970662
92   92   3    -2.0000   2.727208   1.459207   12.970439
93   93   3    -2.0000   5.455650   1.459926   12.970216
94   94   3    -2.0000  -1.366382   3.972050   12.916664
95   95   3    -2.0000   1.362062   3.972765   12.916441
96   96   3    -2.0000   4.090503   3.973486   12.916219
97   97   3    -2.0000  -2.731528   6.485570   12.862654
98   98   3    -2.0000  -0.003089   6.486289   12.862431
99   99   3    -2.0000   2.725357   6.487006   12.862209
100  100  3    -2.0000  -1.366515   7.227514   10.252900
101  101  3    -2.0000   1.361928   7.228232   10.252678
102  102  3    -2.0000   4.090369   7.228946   10.252456
103  103  3    -2.0000   1.363806   2.200428   10.360926
104  104  3    -2.0000   4.092245   2.201149   10.360703
105  105  3    -2.0000   6.820683   2.201865   10.360482
106  106  3    -2.0000  -0.001391   4.713929   10.306891
107  107  3    -2.0000   2.727054   4.714646   10.306668
108  108  3    -2.0000   5.455487   4.715364   10.306445

