title

1536   atoms
3   atom types

0.0 21.831472 xlo xhi
0.0 20.121716 ylo yhi
0.0 28.105434 zlo zhi

0.00000 0.00000 0.00000 xy xz yz 

Masses

1   6.94100 # Li
2  58.69340 # Ni
3  15.99990 # O

Atoms

1    1    1     1.0000   2.737359   1.528833   2.361318
2    2    1     1.0000   2.737359   1.528833   16.414035
3    3    1     1.0000   2.737359   11.589691   2.361318
4    4    1     1.0000   2.737359   11.589691   16.414035
5    5    1     1.0000   13.653095   1.528833   2.361318
6    6    1     1.0000   13.653095   1.528833   16.414035
7    7    1     1.0000   13.653095   11.589691   2.361318
8    8    1     1.0000   13.653095   11.589691   16.414035
9    9    1     1.0000   2.920405   6.701549   1.853321
10   10   1     1.0000   2.920405   6.701549   15.906037
11   11   1     1.0000   2.920405   16.762407   1.853321
12   12   1     1.0000   2.920405   16.762407   15.906037
13   13   1     1.0000   13.836141   6.701549   1.853321
14   14   1     1.0000   13.836141   6.701549   15.906037
15   15   1     1.0000   13.836141   16.762407   1.853321
16   16   1     1.0000   13.836141   16.762407   15.906037
17   17   1     1.0000   5.357164   1.389546   2.421648
18   18   1     1.0000   5.357164   1.389546   16.474365
19   19   1     1.0000   5.357164   11.450404   2.421648
20   20   1     1.0000   5.357164   11.450404   16.474365
21   21   1     1.0000   16.272900   1.389546   2.421648
22   22   1     1.0000   16.272900   1.389546   16.474365
23   23   1     1.0000   16.272900   11.450404   2.421648
24   24   1     1.0000   16.272900   11.450404   16.474365
25   25   1     1.0000   5.576911   6.467978   2.010597
26   26   1     1.0000   5.576911   6.467978   16.063314
27   27   1     1.0000   5.576911   16.528836   2.010597
28   28   1     1.0000   5.576911   16.528836   16.063314
29   29   1     1.0000   16.492648   6.467978   2.010597
30   30   1     1.0000   16.492648   6.467978   16.063314
31   31   1     1.0000   16.492648   16.528836   2.010597
32   32   1     1.0000   16.492648   16.528836   16.063314
33   33   1     1.0000   8.028545   1.423232   2.343135
34   34   1     1.0000   8.028545   1.423232   16.395851
35   35   1     1.0000   8.028545   11.484090   2.343135
36   36   1     1.0000   8.028545   11.484090   16.395851
37   37   1     1.0000   18.944281   1.423232   2.343135
38   38   1     1.0000   18.944281   1.423232   16.395851
39   39   1     1.0000   18.944281   11.484090   2.343135
40   40   1     1.0000   18.944281   11.484090   16.395851
41   41   1     1.0000   8.544066   6.467680   2.264252
42   42   1     1.0000   8.544066   6.467680   16.316969
43   43   1     1.0000   8.544066   16.528537   2.264252
44   44   1     1.0000   8.544066   16.528537   16.316969
45   45   1     1.0000   19.459802   6.467680   2.264252
46   46   1     1.0000   19.459802   6.467680   16.316969
47   47   1     1.0000   19.459802   16.528537   2.264252
48   48   1     1.0000   19.459802   16.528537   16.316969
49   49   1     1.0000   0.034722   1.364931   2.404963
50   50   1     1.0000   0.034722   1.364931   16.457680
51   51   1     1.0000   0.034722   11.425789   2.404963
52   52   1     1.0000   0.034722   11.425789   16.457680
53   53   1     1.0000   10.950458   1.364931   2.404963
54   54   1     1.0000   10.950458   1.364931   16.457680
55   55   1     1.0000   10.950458   11.425789   2.404963
56   56   1     1.0000   10.950458   11.425789   16.457680
57   57   1     1.0000   0.032574   6.545183   2.473401
58   58   1     1.0000   0.032574   6.545183   16.526117
59   59   1     1.0000   0.032574   16.606040   2.473401
60   60   1     1.0000   0.032574   16.606040   16.526117
61   61   1     1.0000   10.948311   6.545183   2.473401
62   62   1     1.0000   10.948311   6.545183   16.526117
63   63   1     1.0000   10.948311   16.606040   2.473401
64   64   1     1.0000   10.948311   16.606040   16.526117
65   65   1     1.0000   1.564444   3.926107   2.358320
66   66   1     1.0000   1.564444   3.926107   16.411037
67   67   1     1.0000   1.564444   13.986965   2.358320
68   68   1     1.0000   1.564444   13.986965   16.411037
69   69   1     1.0000   12.480180   3.926107   2.358320
70   70   1     1.0000   12.480180   3.926107   16.411037
71   71   1     1.0000   12.480180   13.986965   2.358320
72   72   1     1.0000   12.480180   13.986965   16.411037
73   73   1     1.0000   1.425577   9.007180   2.496066
74   74   1     1.0000   1.425577   9.007180   16.548783
75   75   1     1.0000   1.425577   19.068037   2.496066
76   76   1     1.0000   1.425577   19.068037   16.548783
77   77   1     1.0000   12.341313   9.007180   2.496066
78   78   1     1.0000   12.341313   9.007180   16.548783
79   79   1     1.0000   12.341313   19.068037   2.496066
80   80   1     1.0000   12.341313   19.068037   16.548783
81   81   1     1.0000   4.286684   3.892148   2.196361
82   82   1     1.0000   4.286684   3.892148   16.249078
83   83   1     1.0000   4.286684   13.953006   2.196361
84   84   1     1.0000   4.286684   13.953006   16.249078
85   85   1     1.0000   15.202420   3.892148   2.196361
86   86   1     1.0000   15.202420   3.892148   16.249078
87   87   1     1.0000   15.202420   13.953006   2.196361
88   88   1     1.0000   15.202420   13.953006   16.249078
89   89   1     1.0000   4.225263   8.711625   2.229515
90   90   1     1.0000   4.225263   8.711625   16.282232
91   91   1     1.0000   4.225263   18.772483   2.229515
92   92   1     1.0000   4.225263   18.772483   16.282232
93   93   1     1.0000   15.140999   8.711625   2.229515
94   94   1     1.0000   15.140999   8.711625   16.282232
95   95   1     1.0000   15.140999   18.772483   2.229515
96   96   1     1.0000   15.140999   18.772483   16.282232
97   97   1     1.0000   6.926078   3.926861   2.123397
98   98   1     1.0000   6.926078   3.926861   16.176114
99   99   1     1.0000   6.926078   13.987719   2.123397
100  100  1     1.0000   6.926078   13.987719   16.176114
101  101  1     1.0000   17.841814   3.926861   2.123397
102  102  1     1.0000   17.841814   3.926861   16.176114
103  103  1     1.0000   17.841814   13.987719   2.123397
104  104  1     1.0000   17.841814   13.987719   16.176114
105  105  1     1.0000   6.514808   8.921933   2.332996
106  106  1     1.0000   6.514808   8.921933   16.385713
107  107  1     1.0000   6.514808   18.982791   2.332996
108  108  1     1.0000   6.514808   18.982791   16.385713
109  109  1     1.0000   17.430545   8.921933   2.332996
110  110  1     1.0000   17.430545   8.921933   16.385713
111  111  1     1.0000   17.430545   18.982791   2.332996
112  112  1     1.0000   17.430545   18.982791   16.385713
113  113  1     1.0000   9.816771   3.739149   2.479277
114  114  1     1.0000   9.816771   3.739149   16.531994
115  115  1     1.0000   9.816771   13.800007   2.479277
116  116  1     1.0000   9.816771   13.800007   16.531994
117  117  1     1.0000   20.732507   3.739149   2.479277
118  118  1     1.0000   20.732507   3.739149   16.531994
119  119  1     1.0000   20.732507   13.800007   2.479277
120  120  1     1.0000   20.732507   13.800007   16.531994
121  121  1     1.0000   9.404893   9.041513   2.556631
122  122  1     1.0000   9.404893   9.041513   16.609347
123  123  1     1.0000   9.404893   19.102370   2.556631
124  124  1     1.0000   9.404893   19.102370   16.609347
125  125  1     1.0000   20.320629   9.041513   2.556631
126  126  1     1.0000   20.320629   9.041513   16.609347
127  127  1     1.0000   20.320629   19.102370   2.556631
128  128  1     1.0000   20.320629   19.102370   16.609347
129  129  1     1.0000   1.192719   0.439031   11.812141
130  130  1     1.0000   1.192719   0.439031   25.864858
131  131  1     1.0000   1.192719   10.499889   11.812141
132  132  1     1.0000   1.192719   10.499889   25.864858
133  133  1     1.0000   12.108455   0.439031   11.812141
134  134  1     1.0000   12.108455   0.439031   25.864858
135  135  1     1.0000   12.108455   10.499889   11.812141
136  136  1     1.0000   12.108455   10.499889   25.864858
137  137  1     1.0000   1.006115   5.506179   11.694929
138  138  1     1.0000   1.006115   5.506179   25.747646
139  139  1     1.0000   1.006115   15.567037   11.694929
140  140  1     1.0000   1.006115   15.567037   25.747646
141  141  1     1.0000   11.921851   5.506179   11.694929
142  142  1     1.0000   11.921851   5.506179   25.747646
143  143  1     1.0000   11.921851   15.567037   11.694929
144  144  1     1.0000   11.921851   15.567037   25.747646
145  145  1     1.0000   4.071319   0.379519   11.868397
146  146  1     1.0000   4.071319   0.379519   25.921114
147  147  1     1.0000   4.071319   10.440377   11.868397
148  148  1     1.0000   4.071319   10.440377   25.921114
149  149  1     1.0000   14.987055   0.379519   11.868397
150  150  1     1.0000   14.987055   0.379519   25.921114
151  151  1     1.0000   14.987055   10.440377   11.868397
152  152  1     1.0000   14.987055   10.440377   25.921114
153  153  1     1.0000   4.094265   5.599574   11.631675
154  154  1     1.0000   4.094265   5.599574   25.684392
155  155  1     1.0000   4.094265   15.660432   11.631675
156  156  1     1.0000   4.094265   15.660432   25.684392
157  157  1     1.0000   15.010002   5.599574   11.631675
158  158  1     1.0000   15.010002   5.599574   25.684392
159  159  1     1.0000   15.010002   15.660432   11.631675
160  160  1     1.0000   15.010002   15.660432   25.684392
161  161  1     1.0000   6.739079   0.709292   11.585833
162  162  1     1.0000   6.739079   0.709292   25.638549
163  163  1     1.0000   6.739079   10.770150   11.585833
164  164  1     1.0000   6.739079   10.770150   25.638549
165  165  1     1.0000   17.654815   0.709292   11.585833
166  166  1     1.0000   17.654815   0.709292   25.638549
167  167  1     1.0000   17.654815   10.770150   11.585833
168  168  1     1.0000   17.654815   10.770150   25.638549
169  169  1     1.0000   6.623432   5.777604   11.669366
170  170  1     1.0000   6.623432   5.777604   25.722083
171  171  1     1.0000   6.623432   15.838461   11.669366
172  172  1     1.0000   6.623432   15.838461   25.722083
173  173  1     1.0000   17.539168   5.777604   11.669366
174  174  1     1.0000   17.539168   5.777604   25.722083
175  175  1     1.0000   17.539168   15.838461   11.669366
176  176  1     1.0000   17.539168   15.838461   25.722083
177  177  1     1.0000   9.601435   0.430959   11.780794
178  178  1     1.0000   9.601435   0.430959   25.833511
179  179  1     1.0000   9.601435   10.491816   11.780794
180  180  1     1.0000   9.601435   10.491816   25.833511
181  181  1     1.0000   20.517172   0.430959   11.780794
182  182  1     1.0000   20.517172   0.430959   25.833511
183  183  1     1.0000   20.517172   10.491816   11.780794
184  184  1     1.0000   20.517172   10.491816   25.833511
185  185  1     1.0000   9.547458   5.429276   11.631186
186  186  1     1.0000   9.547458   5.429276   25.683903
187  187  1     1.0000   9.547458   15.490134   11.631186
188  188  1     1.0000   9.547458   15.490134   25.683903
189  189  1     1.0000   20.463194   5.429276   11.631186
190  190  1     1.0000   20.463194   5.429276   25.683903
191  191  1     1.0000   20.463194   15.490134   11.631186
192  192  1     1.0000   20.463194   15.490134   25.683903
193  193  1     1.0000   10.820281   3.198408   11.911463
194  194  1     1.0000   10.820281   3.198408   25.964179
195  195  1     1.0000   10.820281   13.259265   11.911463
196  196  1     1.0000   10.820281   13.259265   25.964179
197  197  1     1.0000   21.736017   3.198408   11.911463
198  198  1     1.0000   21.736017   3.198408   25.964179
199  199  1     1.0000   21.736017   13.259265   11.911463
200  200  1     1.0000   21.736017   13.259265   25.964179
201  201  1     1.0000   10.723574   8.326814   11.886869
202  202  1     1.0000   10.723574   8.326814   25.939586
203  203  1     1.0000   10.723574   18.387672   11.886869
204  204  1     1.0000   10.723574   18.387672   25.939586
205  205  1     1.0000   21.639310   8.326814   11.886869
206  206  1     1.0000   21.639310   8.326814   25.939586
207  207  1     1.0000   21.639310   18.387672   11.886869
208  208  1     1.0000   21.639310   18.387672   25.939586
209  209  1     1.0000   2.483661   3.361096   11.675559
210  210  1     1.0000   2.483661   3.361096   25.728276
211  211  1     1.0000   2.483661   13.421954   11.675559
212  212  1     1.0000   2.483661   13.421954   25.728276
213  213  1     1.0000   13.399397   3.361096   11.675559
214  214  1     1.0000   13.399397   3.361096   25.728276
215  215  1     1.0000   13.399397   13.421954   11.675559
216  216  1     1.0000   13.399397   13.421954   25.728276
217  217  1     1.0000   2.620090   7.979417   11.765557
218  218  1     1.0000   2.620090   7.979417   25.818274
219  219  1     1.0000   2.620090   18.040275   11.765557
220  220  1     1.0000   2.620090   18.040275   25.818274
221  221  1     1.0000   13.535826   7.979417   11.765557
222  222  1     1.0000   13.535826   7.979417   25.818274
223  223  1     1.0000   13.535826   18.040275   11.765557
224  224  1     1.0000   13.535826   18.040275   25.818274
225  225  1     1.0000   5.382991   3.108642   11.626952
226  226  1     1.0000   5.382991   3.108642   25.679669
227  227  1     1.0000   5.382991   13.169500   11.626952
228  228  1     1.0000   5.382991   13.169500   25.679669
229  229  1     1.0000   16.298728   3.108642   11.626952
230  230  1     1.0000   16.298728   3.108642   25.679669
231  231  1     1.0000   16.298728   13.169500   11.626952
232  232  1     1.0000   16.298728   13.169500   25.679669
233  233  1     1.0000   5.139395   8.399397   11.545336
234  234  1     1.0000   5.139395   8.399397   25.598053
235  235  1     1.0000   5.139395   18.460254   11.545336
236  236  1     1.0000   5.139395   18.460254   25.598053
237  237  1     1.0000   16.055131   8.399397   11.545336
238  238  1     1.0000   16.055131   8.399397   25.598053
239  239  1     1.0000   16.055131   18.460254   11.545336
240  240  1     1.0000   16.055131   18.460254   25.598053
241  241  1     1.0000   8.056014   3.246258   11.602462
242  242  1     1.0000   8.056014   3.246258   25.655179
243  243  1     1.0000   8.056014   13.307115   11.602462
244  244  1     1.0000   8.056014   13.307115   25.655179
245  245  1     1.0000   18.971750   3.246258   11.602462
246  246  1     1.0000   18.971750   3.246258   25.655179
247  247  1     1.0000   18.971750   13.307115   11.602462
248  248  1     1.0000   18.971750   13.307115   25.655179
249  249  1     1.0000   8.280438   8.203583   11.796718
250  250  1     1.0000   8.280438   8.203583   25.849435
251  251  1     1.0000   8.280438   18.264441   11.796718
252  252  1     1.0000   8.280438   18.264441   25.849435
253  253  1     1.0000   19.196174   8.203583   11.796718
254  254  1     1.0000   19.196174   8.203583   25.849435
255  255  1     1.0000   19.196174   18.264441   11.796718
256  256  1     1.0000   19.196174   18.264441   25.849435
257  257  1     1.0000   10.893799   4.656046   7.134333
258  258  1     1.0000   10.893799   4.656046   21.187049
259  259  1     1.0000   10.893799   14.716904   7.134333
260  260  1     1.0000   10.893799   14.716904   21.187049
261  261  1     1.0000   21.809535   4.656046   7.134333
262  262  1     1.0000   21.809535   4.656046   21.187049
263  263  1     1.0000   21.809535   14.716904   7.134333
264  264  1     1.0000   21.809535   14.716904   21.187049
265  265  1     1.0000   10.699634   9.488108   7.082014
266  266  1     1.0000   10.699634   9.488108   21.134731
267  267  1     1.0000   10.699634   19.548966   7.082014
268  268  1     1.0000   10.699634   19.548966   21.134731
269  269  1     1.0000   21.615370   9.488108   7.082014
270  270  1     1.0000   21.615370   9.488108   21.134731
271  271  1     1.0000   21.615370   19.548966   7.082014
272  272  1     1.0000   21.615370   19.548966   21.134731
273  273  1     1.0000   2.939613   4.588510   7.253976
274  274  1     1.0000   2.939613   4.588510   21.306692
275  275  1     1.0000   2.939613   14.649368   7.253976
276  276  1     1.0000   2.939613   14.649368   21.306692
277  277  1     1.0000   13.855350   4.588510   7.253976
278  278  1     1.0000   13.855350   4.588510   21.306692
279  279  1     1.0000   13.855350   14.649368   7.253976
280  280  1     1.0000   13.855350   14.649368   21.306692
281  281  1     1.0000   2.831149   9.536637   7.139807
282  282  1     1.0000   2.831149   9.536637   21.192523
283  283  1     1.0000   2.831149   19.597495   7.139807
284  284  1     1.0000   2.831149   19.597495   21.192523
285  285  1     1.0000   13.746885   9.536637   7.139807
286  286  1     1.0000   13.746885   9.536637   21.192523
287  287  1     1.0000   13.746885   19.597495   7.139807
288  288  1     1.0000   13.746885   19.597495   21.192523
289  289  1     1.0000   5.362596   4.663118   6.919676
290  290  1     1.0000   5.362596   4.663118   20.972393
291  291  1     1.0000   5.362596   14.723976   6.919676
292  292  1     1.0000   5.362596   14.723976   20.972393
293  293  1     1.0000   16.278332   4.663118   6.919676
294  294  1     1.0000   16.278332   4.663118   20.972393
295  295  1     1.0000   16.278332   14.723976   6.919676
296  296  1     1.0000   16.278332   14.723976   20.972393
297  297  1     1.0000   5.506561   9.862282   6.733981
298  298  1     1.0000   5.506561   9.862282   20.786698
299  299  1     1.0000   5.506561   19.923139   6.733981
300  300  1     1.0000   5.506561   19.923139   20.786698
301  301  1     1.0000   16.422297   9.862282   6.733981
302  302  1     1.0000   16.422297   9.862282   20.786698
303  303  1     1.0000   16.422297   19.923139   6.733981
304  304  1     1.0000   16.422297   19.923139   20.786698
305  305  1     1.0000   8.133790   4.635274   7.069913
306  306  1     1.0000   8.133790   4.635274   21.122629
307  307  1     1.0000   8.133790   14.696132   7.069913
308  308  1     1.0000   8.133790   14.696132   21.122629
309  309  1     1.0000   19.049526   4.635274   7.069913
310  310  1     1.0000   19.049526   4.635274   21.122629
311  311  1     1.0000   19.049526   14.696132   7.069913
312  312  1     1.0000   19.049526   14.696132   21.122629
313  313  1     1.0000   8.138169   9.619761   6.877120
314  314  1     1.0000   8.138169   9.619761   20.929837
315  315  1     1.0000   8.138169   19.680619   6.877120
316  316  1     1.0000   8.138169   19.680619   20.929837
317  317  1     1.0000   19.053906   9.619761   6.877120
318  318  1     1.0000   19.053906   9.619761   20.929837
319  319  1     1.0000   19.053906   19.680619   6.877120
320  320  1     1.0000   19.053906   19.680619   20.929837
321  321  1     1.0000   1.206666   2.161294   7.003634
322  322  1     1.0000   1.206666   2.161294   21.056351
323  323  1     1.0000   1.206666   12.222152   7.003634
324  324  1     1.0000   1.206666   12.222152   21.056351
325  325  1     1.0000   12.122402   2.161294   7.003634
326  326  1     1.0000   12.122402   2.161294   21.056351
327  327  1     1.0000   12.122402   12.222152   7.003634
328  328  1     1.0000   12.122402   12.222152   21.056351
329  329  1     1.0000   1.313950   7.225881   6.996360
330  330  1     1.0000   1.313950   7.225881   21.049076
331  331  1     1.0000   1.313950   17.286738   6.996360
332  332  1     1.0000   1.313950   17.286738   21.049076
333  333  1     1.0000   12.229686   7.225881   6.996360
334  334  1     1.0000   12.229686   7.225881   21.049076
335  335  1     1.0000   12.229686   17.286738   6.996360
336  336  1     1.0000   12.229686   17.286738   21.049076
337  337  1     1.0000   4.061416   2.190067   7.095020
338  338  1     1.0000   4.061416   2.190067   21.147737
339  339  1     1.0000   4.061416   12.250924   7.095020
340  340  1     1.0000   4.061416   12.250924   21.147737
341  341  1     1.0000   14.977152   2.190067   7.095020
342  342  1     1.0000   14.977152   2.190067   21.147737
343  343  1     1.0000   14.977152   12.250924   7.095020
344  344  1     1.0000   14.977152   12.250924   21.147737
345  345  1     1.0000   4.038101   7.318481   6.837803
346  346  1     1.0000   4.038101   7.318481   20.890520
347  347  1     1.0000   4.038101   17.379338   6.837803
348  348  1     1.0000   4.038101   17.379338   20.890520
349  349  1     1.0000   14.953838   7.318481   6.837803
350  350  1     1.0000   14.953838   7.318481   20.890520
351  351  1     1.0000   14.953838   17.379338   6.837803
352  352  1     1.0000   14.953838   17.379338   20.890520
353  353  1     1.0000   6.882493   2.253035   7.130163
354  354  1     1.0000   6.882493   2.253035   21.182879
355  355  1     1.0000   6.882493   12.313893   7.130163
356  356  1     1.0000   6.882493   12.313893   21.182879
357  357  1     1.0000   17.798229   2.253035   7.130163
358  358  1     1.0000   17.798229   2.253035   21.182879
359  359  1     1.0000   17.798229   12.313893   7.130163
360  360  1     1.0000   17.798229   12.313893   21.182879
361  361  1     1.0000   6.927104   7.300801   6.861334
362  362  1     1.0000   6.927104   7.300801   20.914051
363  363  1     1.0000   6.927104   17.361659   6.861334
364  364  1     1.0000   6.927104   17.361659   20.914051
365  365  1     1.0000   17.842840   7.300801   6.861334
366  366  1     1.0000   17.842840   7.300801   20.914051
367  367  1     1.0000   17.842840   17.361659   6.861334
368  368  1     1.0000   17.842840   17.361659   20.914051
369  369  1     1.0000   9.588616   2.019833   7.333129
370  370  1     1.0000   9.588616   2.019833   21.385846
371  371  1     1.0000   9.588616   12.080691   7.333129
372  372  1     1.0000   9.588616   12.080691   21.385846
373  373  1     1.0000   20.504353   2.019833   7.333129
374  374  1     1.0000   20.504353   2.019833   21.385846
375  375  1     1.0000   20.504353   12.080691   7.333129
376  376  1     1.0000   20.504353   12.080691   21.385846
377  377  1     1.0000   9.522799   6.703378   7.084165
378  378  1     1.0000   9.522799   6.703378   21.136882
379  379  1     1.0000   9.522799   16.764236   7.084165
380  380  1     1.0000   9.522799   16.764236   21.136882
381  381  1     1.0000   20.438535   6.703378   7.084165
382  382  1     1.0000   20.438535   6.703378   21.136882
383  383  1     1.0000   20.438535   16.764236   7.084165
384  384  1     1.0000   20.438535   16.764236   21.136882
385  385  2     3.0000   0.039112   4.638437   0.099589
386  386  2     3.0000   0.039112   4.638437   14.152306
387  387  2     3.0000   0.039112   14.699295   0.099589
388  388  2     3.0000   0.039112   14.699295   14.152306
389  389  2     3.0000   10.954848   4.638437   0.099589
390  390  2     3.0000   10.954848   4.638437   14.152306
391  391  2     3.0000   10.954848   14.699295   0.099589
392  392  2     3.0000   10.954848   14.699295   14.152306
393  393  2     3.0000   10.734097   9.780266   0.303704
394  394  2     3.0000   10.734097   9.780266   14.356421
395  395  2     3.0000   10.734097   19.841124   0.303704
396  396  2     3.0000   10.734097   19.841124   14.356421
397  397  2     3.0000   21.649833   9.780266   0.303704
398  398  2     3.0000   21.649833   9.780266   14.356421
399  399  2     3.0000   21.649833   19.841124   0.303704
400  400  2     3.0000   21.649833   19.841124   14.356421
401  401  2     3.0000   2.664978   4.604632   14.023542
402  402  2     3.0000   2.664978   4.604632   28.076259
403  403  2     3.0000   2.664978   14.665490   14.023542
404  404  2     3.0000   2.664978   14.665490   28.076259
405  405  2     3.0000   13.580714   4.604632   14.023542
406  406  2     3.0000   13.580714   4.604632   28.076259
407  407  2     3.0000   13.580714   14.665490   14.023542
408  408  2     3.0000   13.580714   14.665490   28.076259
409  409  2     3.0000   2.537927   9.740097   0.169396
410  410  2     3.0000   2.537927   9.740097   14.222113
411  411  2     3.0000   2.537927   19.800954   0.169396
412  412  2     3.0000   2.537927   19.800954   14.222113
413  413  2     3.0000   13.453663   9.740097   0.169396
414  414  2     3.0000   13.453663   9.740097   14.222113
415  415  2     3.0000   13.453663   19.800954   0.169396
416  416  2     3.0000   13.453663   19.800954   14.222113
417  417  2     3.0000   5.424023   4.843137   13.825065
418  418  2     3.0000   5.424023   4.843137   27.877782
419  419  2     3.0000   5.424023   14.903995   13.825065
420  420  2     3.0000   5.424023   14.903995   27.877782
421  421  2     3.0000   16.339759   4.843137   13.825065
422  422  2     3.0000   16.339759   4.843137   27.877782
423  423  2     3.0000   16.339759   14.903995   13.825065
424  424  2     3.0000   16.339759   14.903995   27.877782
425  425  2     3.0000   5.335366   9.746212   0.011576
426  426  2     3.0000   5.335366   9.746212   14.064293
427  427  2     3.0000   5.335366   19.807070   0.011576
428  428  2     3.0000   5.335366   19.807070   14.064293
429  429  2     3.0000   16.251102   9.746212   0.011576
430  430  2     3.0000   16.251102   9.746212   14.064293
431  431  2     3.0000   16.251102   19.807070   0.011576
432  432  2     3.0000   16.251102   19.807070   14.064293
433  433  2     3.0000   8.192819   4.923274   0.032285
434  434  2     3.0000   8.192819   4.923274   14.085002
435  435  2     3.0000   8.192819   14.984132   0.032285
436  436  2     3.0000   8.192819   14.984132   14.085002
437  437  2     3.0000   19.108555   4.923274   0.032285
438  438  2     3.0000   19.108555   4.923274   14.085002
439  439  2     3.0000   19.108555   14.984132   0.032285
440  440  2     3.0000   19.108555   14.984132   14.085002
441  441  2     3.0000   8.024855   9.656071   0.135018
442  442  2     3.0000   8.024855   9.656071   14.187735
443  443  2     3.0000   8.024855   19.716928   0.135018
444  444  2     3.0000   8.024855   19.716928   14.187735
445  445  2     3.0000   18.940591   9.656071   0.135018
446  446  2     3.0000   18.940591   9.656071   14.187735
447  447  2     3.0000   18.940591   19.716928   0.135018
448  448  2     3.0000   18.940591   19.716928   14.187735
449  449  2     3.0000   1.299079   2.086584   0.108642
450  450  2     3.0000   1.299079   2.086584   14.161359
451  451  2     3.0000   1.299079   12.147442   0.108642
452  452  2     3.0000   1.299079   12.147442   14.161359
453  453  2     3.0000   12.214815   2.086584   0.108642
454  454  2     3.0000   12.214815   2.086584   14.161359
455  455  2     3.0000   12.214815   12.147442   0.108642
456  456  2     3.0000   12.214815   12.147442   14.161359
457  457  2     3.0000   1.449025   7.201565   0.110649
458  458  2     3.0000   1.449025   7.201565   14.163366
459  459  2     3.0000   1.449025   17.262422   0.110649
460  460  2     3.0000   1.449025   17.262422   14.163366
461  461  2     3.0000   12.364762   7.201565   0.110649
462  462  2     3.0000   12.364762   7.201565   14.163366
463  463  2     3.0000   12.364762   17.262422   0.110649
464  464  2     3.0000   12.364762   17.262422   14.163366
465  465  2     3.0000   4.199431   2.122524   0.118005
466  466  2     3.0000   4.199431   2.122524   14.170722
467  467  2     3.0000   4.199431   12.183382   0.118005
468  468  2     3.0000   4.199431   12.183382   14.170722
469  469  2     3.0000   15.115167   2.122524   0.118005
470  470  2     3.0000   15.115167   2.122524   14.170722
471  471  2     3.0000   15.115167   12.183382   0.118005
472  472  2     3.0000   15.115167   12.183382   14.170722
473  473  2     3.0000   4.101827   7.109865   13.627139
474  474  2     3.0000   4.101827   7.109865   27.679856
475  475  2     3.0000   4.101827   17.170723   13.627139
476  476  2     3.0000   4.101827   17.170723   27.679856
477  477  2     3.0000   15.017563   7.109865   13.627139
478  478  2     3.0000   15.017563   7.109865   27.679856
479  479  2     3.0000   15.017563   17.170723   13.627139
480  480  2     3.0000   15.017563   17.170723   27.679856
481  481  2     3.0000   6.872236   2.236069   13.995440
482  482  2     3.0000   6.872236   2.236069   28.048157
483  483  2     3.0000   6.872236   12.296927   13.995440
484  484  2     3.0000   6.872236   12.296927   28.048157
485  485  2     3.0000   17.787972   2.236069   13.995440
486  486  2     3.0000   17.787972   2.236069   28.048157
487  487  2     3.0000   17.787972   12.296927   13.995440
488  488  2     3.0000   17.787972   12.296927   28.048157
489  489  2     3.0000   6.816630   7.281976   13.977589
490  490  2     3.0000   6.816630   7.281976   28.030305
491  491  2     3.0000   6.816630   17.342834   13.977589
492  492  2     3.0000   6.816630   17.342834   28.030305
493  493  2     3.0000   17.732366   7.281976   13.977589
494  494  2     3.0000   17.732366   7.281976   28.030305
495  495  2     3.0000   17.732366   17.342834   13.977589
496  496  2     3.0000   17.732366   17.342834   28.030305
497  497  2     3.0000   9.431568   2.107571   0.068142
498  498  2     3.0000   9.431568   2.107571   14.120859
499  499  2     3.0000   9.431568   12.168429   0.068142
500  500  2     3.0000   9.431568   12.168429   14.120859
501  501  2     3.0000   20.347304   2.107571   0.068142
502  502  2     3.0000   20.347304   2.107571   14.120859
503  503  2     3.0000   20.347304   12.168429   0.068142
504  504  2     3.0000   20.347304   12.168429   14.120859
505  505  2     3.0000   9.541469   7.207268   0.311401
506  506  2     3.0000   9.541469   7.207268   14.364118
507  507  2     3.0000   9.541469   17.268125   0.311401
508  508  2     3.0000   9.541469   17.268125   14.364118
509  509  2     3.0000   20.457205   7.207268   0.311401
510  510  2     3.0000   20.457205   7.207268   14.364118
511  511  2     3.0000   20.457205   17.268125   0.311401
512  512  2     3.0000   20.457205   17.268125   14.364118
513  513  2     3.0000   1.441501   0.318922   4.961956
514  514  2     3.0000   1.441501   0.318922   19.014673
515  515  2     3.0000   1.441501   10.379780   4.961956
516  516  2     3.0000   1.441501   10.379780   19.014673