title

288   atoms
96   bonds

4   atom types
1   bond types

0.0 12.176542 xlo xhi
0.0 9.588532 ylo yhi
0.0 13.997015 zlo zhi

-4.66146 0.58146 0.44776 xy xz yz 

Masses

1   6.94100 # Li
2  58.69340 # Ni
3  14.39910 # O core
4   1.59990 # O shell

Atoms

1    1    1     1.0000   0.200672   1.859002   2.394819
2    2    1     1.0000  -1.052497   3.968797   2.347062
3    3    1     1.0000  -1.965450   6.526457   2.430568
4    4    1     1.0000  -3.395225   8.848949   2.245261
5    5    1     1.0000   3.120005   1.811441   1.971578
6    6    1     1.0000   1.732809   4.130033   2.449422
7    7    1     1.0000   0.775371   6.334799   2.348209
8    8    1     1.0000  -0.707125   8.748791   2.249446
9    9    1     1.0000   5.964657   1.476238   2.385693
10   10   1     1.0000   4.430025   3.997522   2.156954
11   11   1     1.0000   3.390280   6.328714   2.281625
12   12   1     1.0000   2.170182   8.822905   2.280254
13   13   1     1.0000   8.741841   1.761530   2.405121
14   14   1     1.0000   7.012056   4.001803   2.440786
15   15   1     1.0000   6.379458   6.471728   2.256613
16   16   1     1.0000   5.227436   8.914622   2.466414
17   17   1     1.0000   0.420154   0.408224   7.016676
18   18   1     1.0000  -0.571393   2.746191   7.207035
19   19   1     1.0000   8.920140   4.854079   7.054734
20   20   1     1.0000   7.919662   7.506974   6.807714
21   21   1     1.0000  -1.252918   9.551197   6.994365
22   22   1     1.0000   1.812826   2.771807   7.140116
23   23   1     1.0000   0.953812   5.017530   7.026628
24   24   1     1.0000  -0.544924   7.499924   6.973257
25   25   1     1.0000   6.155406   0.465778   7.389724
26   26   1     1.0000   4.865721   2.568633   7.053754
27   27   1     1.0000   3.604475   4.843113   6.900291
28   28   1     1.0000   2.421080   7.317381   6.915043
29   29   1     1.0000   4.220538   9.766717   6.944185
30   30   1     1.0000   7.657947   2.756611   7.029147
31   31   1     1.0000   6.285297   5.222400   7.013610
32   32   1     1.0000   5.215773   7.586846   7.279302
33   33   1     1.0000   2.131910   1.135224   11.568533
34   34   1     1.0000   0.973630   3.325489   11.644271
35   35   1     1.0000  -0.251903   5.733114   11.641696
36   36   1     1.0000  -1.381380   8.196444   11.638518
37   37   1     1.0000   5.100838   1.676945   11.832755
38   38   1     1.0000   3.725000   3.677247   11.947069
39   39   1     1.0000   2.381156   5.933517   11.724670
40   40   1     1.0000   1.197263   8.476343   11.522609
41   41   1     1.0000   7.884061   1.434279   11.681083
42   42   1     1.0000   6.781506   3.816270   11.685912
43   43   1     1.0000   5.098882   6.079394   11.586449
44   44   1     1.0000   4.366223   8.463139   11.657484
45   45   1     1.0000   10.600425   1.148611   11.625319
46   46   1     1.0000   9.265188   3.578465   11.580179
47   47   1     1.0000   8.109598   5.937354   11.667058
48   48   1     1.0000   6.839560   8.229445   11.720387
49   49   2     3.0000   0.634030   0.520997   13.981059
50   50   2     3.0000  -1.094358   2.396102   0.073470
51   51   2     3.0000   9.462337   5.136551   13.990535
52   52   2     3.0000   8.183089   7.616442   13.992746
53   53   2     3.0000  -1.312946   9.902332   13.813291
54   54   2     3.0000   2.381331   2.917896   13.908792
55   55   2     3.0000   1.017413   5.225753   13.943855
56   56   2     3.0000  -0.609642   7.110990   0.136821
57   57   2     3.0000   1.511904   9.947425   13.954311
58   58   2     3.0000   4.561472   2.356359   0.154807
59   59   2     3.0000   3.907050   5.263683   13.882814
60   60   2     3.0000   2.628120   7.484044   13.820261
61   61   2     3.0000   8.605073   0.007744   0.207352
62   62   2     3.0000   7.394323   2.281938   0.166494
63   63   2     3.0000   6.737326   5.185218   13.972899
64   64   2     3.0000   5.471958   7.562904   13.953037
65   65   2     3.0000   1.649665   0.943812   4.576198
66   66   2     3.0000   0.279523   3.428048   4.581587
67   67   2     3.0000  -0.816527   5.726854   4.574449
68   68   2     3.0000  -1.821527   8.118020   4.646645
69   69   2     3.0000   4.646405   0.795077   4.492748
70   70   2     3.0000   3.243505   3.160896   4.692066
71   71   2     3.0000   1.927782   5.693986   4.828200
72   72   2     3.0000   1.038741   8.285348   4.548708
73   73   2     3.0000   7.402893   1.013431   4.799717
74   74   2     3.0000   6.169559   3.437864   4.783354
75   75   2     3.0000   4.893905   5.826935   4.628057
76   76   2     3.0000   3.672729   8.060098   4.542633
77   77   2     3.0000   10.040156   1.088858   4.762303
78   78   2     3.0000   8.914287   3.479922   4.614214
79   79   2     3.0000   7.697047   5.857780   4.706007
80   80   2     3.0000   6.610428   8.236205   4.729326
81   81   2     3.0000   0.688933   1.843987   9.422469
82   82   2     3.0000  -0.435539   4.238875   9.419963
83   83   2     3.0000  -1.731096   6.596960   9.387420
84   84   2     3.0000  -3.008327   8.892651   9.311640
85   85   2     3.0000   3.472658   1.949842   9.526607
86   86   2     3.0000   2.346545   4.250958   9.380618
87   87   2     3.0000   0.998740   6.704460   9.243559
88   88   2     3.0000  -0.290112   9.024750   9.327163
89   89   2     3.0000   6.248150   2.132079   9.382157
90   90   2     3.0000   5.090501   4.453508   9.426514
91   91   2     3.0000   3.720298   6.704370   9.234461
92   92   2     3.0000   2.574234   9.239636   9.308953
93   93   2     3.0000   8.954951   1.779774   9.301773
94   94   2     3.0000   7.872630   4.297017   9.286250
95   95   2     3.0000   6.605524   6.768765   9.347081
96   96   2     3.0000   5.502654   9.199349   9.230752
97   97   3     0.9600   11.309592   0.166634   3.656272
98   97   4    -2.9600   11.309592   0.166634   3.656272
99   98   3     0.9600  -1.069352   2.691109   3.602440
100  98   4    -2.9600  -1.069352   2.691109   3.602440
101  99   3     0.9600   8.725309   4.818132   3.403962
102  99   4    -2.9600   8.725309   4.818132   3.403962
103  100  3     0.9600   7.551253   7.258271   3.589045
104  100  4    -2.9600   7.551253   7.258271   3.589045
105  101  3     0.9600  -1.960424   9.593597   3.378572
106  101  4    -2.9600  -1.960424   9.593597   3.378572
107  102  3     0.9600   1.754042   2.405283   3.550133
108  102  4    -2.9600   1.754042   2.405283   3.550133
109  103  3     0.9600   0.513475   4.966118   3.814327
110  103  4    -2.9600   0.513475   4.966118   3.814327
111  104  3     0.9600  -0.624561   7.220823   3.592992
112  104  4    -2.9600  -0.624561   7.220823   3.592992
113  105  3     0.9600   1.120219   9.591588   3.238517
114  105  4    -2.9600   1.120219   9.591588   3.238517
115  106  3     0.9600   4.792162   2.521621   3.412794
116  106  4    -2.9600   4.792162   2.521621   3.412794
117  107  3     0.9600   3.125862   4.607504   3.568175
118  107  4    -2.9600   3.125862   4.607504   3.568175
119  108  3     0.9600   2.001623   7.103945   3.625129
120  108  4    -2.9600   2.001623   7.103945   3.625129
121  109  3     0.9600   8.679774   0.220102   3.805201
122  109  4    -2.9600   8.679774   0.220102   3.805201
123  110  3     0.9600   7.357727   2.449480   3.796061
124  110  4    -2.9600   7.357727   2.449480   3.796061
125  111  3     0.9600   6.223986   5.187647   3.603462
126  111  4    -2.9600   6.223986   5.187647   3.603462
127  112  3     0.9600   5.075081   7.485764   3.752936
128  112  4    -2.9600   5.075081   7.485764   3.752936
129  113  3     0.9600   1.593953   0.779300   1.073963
130  113  4    -2.9600   1.593953   0.779300   1.073963
131  114  3     0.9600   0.404983   3.307680   1.110173
132  114  4    -2.9600   0.404983   3.307680   1.110173
133  115  3     0.9600  -0.954956   5.438744   0.999121
134  115  4    -2.9600  -0.954956   5.438744   0.999121
135  116  3     0.9600  -1.741680   7.926577   0.966046
136  116  4    -2.9600  -1.741680   7.926577   0.966046
137  117  3     0.9600   4.248546   0.656311   0.945036
138  117  4    -2.9600   4.248546   0.656311   0.945036
139  118  3     0.9600   3.102301   3.288979   0.744459
140  118  4    -2.9600   3.102301   3.288979   0.744459
141  119  3     0.9600   2.064052   5.430859   1.008933
142  119  4    -2.9600   2.064052   5.430859   1.008933
143  120  3     0.9600   0.931508   8.067162   0.961805
144  120  4    -2.9600   0.931508   8.067162   0.961805
145  121  3     0.9600   7.281266   0.849478   1.230562
146  121  4    -2.9600   7.281266   0.849478   1.230562
147  122  3     0.9600   6.006813   3.271418   0.992836
148  122  4    -2.9600   6.006813   3.271418   0.992836
149  123  3     0.9600   5.139471   5.819061   1.150331
150  123  4    -2.9600   5.139471   5.819061   1.150331
151  124  3     0.9600   3.433029   7.925371   0.902010
152  124  4    -2.9600   3.433029   7.925371   0.902010
153  125  3     0.9600   10.267425   0.759879   1.192350
154  125  4    -2.9600   10.267425   0.759879   1.192350
155  126  3     0.9600   8.829860   3.169591   1.194547
156  126  4    -2.9600   8.829860   3.169591   1.194547
157  127  3     0.9600   7.871783   5.601915   0.993690
158  127  4    -2.9600   7.871783   5.601915   0.993690
159  128  3     0.9600   6.554751   8.104300   0.946352
160  128  4    -2.9600   6.554751   8.104300   0.946352
161  129  3     0.9600   1.750624   0.923250   8.321912
162  129  4    -2.9600   1.750624   0.923250   8.321912
163  130  3     0.9600   0.760841   3.551984   8.402870
164  130  4    -2.9600   0.760841   3.551984   8.402870
165  131  3     0.9600  -0.494733   5.885676   8.377270
166  131  4    -2.9600  -0.494733   5.885676   8.377270
167  132  3     0.9600  -1.834821   7.955321   8.156495
168  132  4    -2.9600  -1.834821   7.955321   8.156495
169  133  3     0.9600   4.719944   1.061876   8.527094
170  133  4    -2.9600   4.719944   1.061876   8.527094
171  134  3     0.9600   3.334084   3.326140   8.239623
172  134  4    -2.9600   3.334084   3.326140   8.239623
173  135  3     0.9600   2.079136   5.698081   8.232079
174  135  4    -2.9600   2.079136   5.698081   8.232079
175  136  3     0.9600   1.142066   8.359547   8.275119
176  136  4    -2.9600   1.142066   8.359547   8.275119
177  137  3     0.9600   7.348144   1.211181   8.401121
178  137  4    -2.9600   7.348144   1.211181   8.401121
179  138  3     0.9600   6.170895   3.534815   8.195826
180  138  4    -2.9600   6.170895   3.534815   8.195826
181  139  3     0.9600   4.916278   5.847550   8.183075
182  139  4    -2.9600   4.916278   5.847550   8.183075
183  140  3     0.9600   3.740895   8.399096   8.369179
184  140  4    -2.9600   3.740895   8.399096   8.369179
185  141  3     0.9600   10.098890   1.020936   7.992562
186  141  4    -2.9600   10.098890   1.020936   7.992562
187  142  3     0.9600   9.380332   3.340311   8.415230
188  142  4    -2.9600   9.380332   3.340311   8.415230
189  143  3     0.9600   7.997261   6.026081   8.409617
190  143  4    -2.9600   7.997261   6.026081   8.409617
191  144  3     0.9600   6.785726   8.191892   8.211335
192  144  4    -2.9600   6.785726   8.191892   8.211335
193  145  3     0.9600   0.565015   1.866240   5.599366
194  145  4    -2.9600   0.565015   1.866240   5.599366
195  146  3     0.9600  -0.856104   4.168704   5.616442
196  146  4    -2.9600  -0.856104   4.168704   5.616442
197  147  3     0.9600  -2.070377   6.485728   5.641077
198  147  4    -2.9600  -2.070377   6.485728   5.641077
199  148  3     0.9600  -3.111628   9.002269   5.562890
200  148  4    -2.9600  -3.111628   9.002269   5.562890
201  149  3     0.9600   3.060859   1.608002   5.741772
202  149  4    -2.9600   3.060859   1.608002   5.741772
203  150  3     0.9600   1.589153   4.169139   5.590520
204  150  4    -2.9600   1.589153   4.169139   5.590520
205  151  3     0.9600   0.742657   6.828188   5.665796
206  151  4    -2.9600   0.742657   6.828188   5.665796
207  152  3     0.9600  -0.105619   8.929093   5.599142
208  152  4    -2.9600  -0.105619   8.929093   5.599142
209  153  3     0.9600   6.316274   1.926951   5.996531
210  153  4    -2.9600   6.316274   1.926951   5.996531
211  154  3     0.9600   4.736102   3.950988   5.652779
212  154  4    -2.9600   4.736102   3.950988   5.652779
213  155  3     0.9600   3.433605   6.448773   5.590408
214  155  4    -2.9600   3.433605   6.448773   5.590408
215  156  3     0.9600   2.251436   8.928738   5.608688
216  156  4    -2.9600   2.251436   8.928738   5.608688
217  157  3     0.9600   9.111238   2.033533   5.864428
218  157  4    -2.9600   9.111238   2.033533   5.864428
219  158  3     0.9600   7.647389   4.173497   5.742332
220  158  4    -2.9600   7.647389   4.173497   5.742332
221  159  3     0.9600   6.444155   6.857368   5.865967
222  159  4    -2.9600   6.444155   6.857368   5.865967
223  160  3     0.9600   5.567519   9.294370   5.809545
224  160  4    -2.9600   5.567519   9.294370   5.809545
225  161  3     0.9600   0.676710   2.008260   12.969620
226  161  4    -2.9600   0.676710   2.008260   12.969620
227  162  3     0.9600  -0.565905   4.213277   12.818145
228  162  4    -2.9600  -0.565905   4.213277   12.818145
229  163  3     0.9600  -1.857346   6.602095   13.006461
230  163  4    -2.9600  -1.857346   6.602095   13.006461
231  164  3     0.9600  -2.821431   9.138539   12.953692
232  164  4    -2.9600  -2.821431   9.138539   12.953692
233  165  3     0.9600   3.620994   2.042478   12.963182
234  165  4    -2.9600   3.620994   2.042478   12.963182
235  166  3     0.9600   2.138432   4.384181   12.996691
236  166  4    -2.9600   2.138432   4.384181   12.996691
237  167  3     0.9600   1.001786   6.712436   12.849316
238  167  4    -2.9600   1.001786   6.712436   12.849316
239  168  3     0.9600  -0.181165   9.006779   12.782018
240  168  4    -2.9600  -0.181165   9.006779   12.782018
241  169  3     0.9600   6.472718   2.029981   13.203385
242  169  4    -2.9600   6.472718   2.029981   13.203385
243  170  3     0.9600   5.151030   4.294865   12.864013
244  170  4    -2.9600   5.151030   4.294865   12.864013
245  171  3     0.9600   3.717302   6.548971   12.626666
246  171  4    -2.9600   3.717302   6.548971   12.626666
247  172  3     0.9600   2.713629   8.861094   12.584325
248  172  4    -2.9600   2.713629   8.861094   12.584325
249  173  3     0.9600   9.232194   1.916842   13.216472
250  173  4    -2.9600   9.232194   1.916842   13.216472
251  174  3     0.9600   8.101795   4.204908   13.000260
252  174  4    -2.9600   8.101795   4.204908   13.000260
253  175  3     0.9600   6.593970   6.654428   12.771381
254  175  4    -2.9600   6.593970   6.654428   12.771381
255  176  3     0.9600   5.582334   9.297921   13.167272
256  176  4    -2.9600   5.582334   9.297921   13.167272
257  177  3     0.9600  -4.078072   9.867265   10.393330
258  177  4    -2.9600  -4.078072   9.867265   10.393330
259  178  3     0.9600  -0.592425   2.655973   10.373286
260  178  4    -2.9600  -0.592425   2.655973   10.373286
261  179  3     0.9600  -1.606008   5.092417   10.375148
262  179  4    -2.9600  -1.606008   5.092417   10.375148
263  180  3     0.9600  -2.781217   7.621970   10.581268
264  180  4    -2.9600  -2.781217   7.621970   10.581268
265  181  3     0.9600   3.512258   0.416873   10.586867
266  181  4    -2.9600   3.512258   0.416873   10.586867
267  182  3     0.9600   2.258324   2.934711   10.568097
268  182  4    -2.9600   2.258324   2.934711   10.568097
269  183  3     0.9600   0.933284   4.872607   10.412184
270  183  4    -2.9600   0.933284   4.872607   10.412184
271  184  3     0.9600  -0.346845   7.322124   10.224512
272  184  4    -2.9600  -0.346845   7.322124   10.224512
273  185  3     0.9600   6.334815   0.393978   10.768506
274  185  4    -2.9600   6.334815   0.393978   10.768506
275  186  3     0.9600   4.921327   2.932666   10.385310
276  186  4    -2.9600   4.921327   2.932666   10.385310
277  187  3     0.9600   3.562954   5.192660   10.200269
278  187  4    -2.9600   3.562954   5.192660   10.200269
279  188  3     0.9600   2.569518   7.592700   10.382160
280  188  4    -2.9600   2.569518   7.592700   10.382160
281  189  3     0.9600   4.034627   9.688431   10.435797
282  189  4    -2.9600   4.034627   9.688431   10.435797
283  190  3     0.9600   7.885230   2.892825   10.346790
284  190  4    -2.9600   7.885230   2.892825   10.346790
285  191  3     0.9600   6.549772   5.343421   10.417111
286  191  4    -2.9600   6.549772   5.343421   10.417111
287  192  3     0.9600   5.318846   7.654463   10.406249
288  192  4    -2.9600   5.318846   7.654463   10.406249

Bonds

1    1    97   98  
2    1    99   100 
3    1    101  102 
4    1    103  104 
5    1    105  106 
6    1    107  108 
7    1    109  110 
8    1    111  112 
9    1    113  114 
10   1    115  116 
11   1    117  118 
12   1    119  120 
13   1    121  122 
14   1    123  124 
15   1    125  126 
16   1    127  128 
17   1    129  130 
18   1    131  132 
19   1    133  134 
20   1    135  136 
21   1    137  138 
22   1    139  140 
23   1    141  142 
24   1    143  144 
25   1    145  146 
26   1    147  148 
27   1    149  150 
28   1    151  152 
29   1    153  154 
30   1    155  156 
31   1    157  158 
32   1    159  160 
33   1    161  162 
34   1    163  164 
35   1    165  166 
36   1    167  168 
37   1    169  170 
38   1    171  172 
39   1    173  174 
40   1    175  176 
41   1    177  178 
42   1    179  180 
43   1    181  182 
44   1    183  184 
45   1    185  186 
46   1    187  188 
47   1    189  190 
48   1    191  192 
49   1    193  194 
50   1    195  196 
51   1    197  198 
52   1    199  200 
53   1    201  202 
54   1    203  204 
55   1    205  206 
56   1    207  208 
57   1    209  210 
58   1    211  212 
59   1    213  214 
60   1    215  216 
61   1    217  218 
62   1    219  220 
63   1    221  222 
64   1    223  224 
65   1    225  226 
66   1    227  228 
67   1    229  230 
68   1    231  232 
69   1    233  234 
70   1    235  236 
71   1    237  238 
72   1    239  240 
73   1    241  242 
74   1    243  244 
75   1    245  246 
76   1    247  248 
77   1    249  250 
78   1    251  252 
79   1    253  254 
80   1    255  256 
81   1    257  258 
82   1    259  260 
83   1    261  262 
84   1    263  264 
85   1    265  266 
86   1    267  268 
87   1    269  270 
88   1    271  272 
89   1    273  274 
90   1    275  276 
91   1    277  278 
92   1    279  280 
93   1    281  282 
94   1    283  284 
95   1    285  286 
96   1    287  288 

