title

1536   atoms
3   atom types

0.0 21.831472 xlo xhi
0.0 20.121716 ylo yhi
0.0 28.105434 zlo zhi

0.00000 0.00000 0.00000 xy xz yz 

Masses

1   6.94100 # Li
2  58.69340 # Ni
3  15.99990 # O

Atoms

1    1    1     1.0000   2.511627   1.601102   2.207369
2    2    1     1.0000   2.511627   1.601102   16.260086
3    3    1     1.0000   2.511627   11.661959   2.207369
4    4    1     1.0000   2.511627   11.661959   16.260086
5    5    1     1.0000   13.427364   1.601102   2.207369
6    6    1     1.0000   13.427364   1.601102   16.260086
7    7    1     1.0000   13.427364   11.661959   2.207369
8    8    1     1.0000   13.427364   11.661959   16.260086
9    9    1     1.0000   2.833692   6.265158   2.541459
10   10   1     1.0000   2.833692   6.265158   16.594176
11   11   1     1.0000   2.833692   16.326016   2.541459
12   12   1     1.0000   2.833692   16.326016   16.594176
13   13   1     1.0000   13.749428   6.265158   2.541459
14   14   1     1.0000   13.749428   6.265158   16.594176
15   15   1     1.0000   13.749428   16.326016   2.541459
16   16   1     1.0000   13.749428   16.326016   16.594176
17   17   1     1.0000   5.598773   1.449268   2.284559
18   18   1     1.0000   5.598773   1.449268   16.337276
19   19   1     1.0000   5.598773   11.510126   2.284559
20   20   1     1.0000   5.598773   11.510126   16.337276
21   21   1     1.0000   16.514510   1.449268   2.284559
22   22   1     1.0000   16.514510   1.449268   16.337276
23   23   1     1.0000   16.514510   11.510126   2.284559
24   24   1     1.0000   16.514510   11.510126   16.337276
25   25   1     1.0000   5.176944   6.424289   2.285822
26   26   1     1.0000   5.176944   6.424289   16.338539
27   27   1     1.0000   5.176944   16.485146   2.285822
28   28   1     1.0000   5.176944   16.485146   16.338539
29   29   1     1.0000   16.092680   6.424289   2.285822
30   30   1     1.0000   16.092680   6.424289   16.338539
31   31   1     1.0000   16.092680   16.485146   2.285822
32   32   1     1.0000   16.092680   16.485146   16.338539
33   33   1     1.0000   8.141770   1.602039   2.357798
34   34   1     1.0000   8.141770   1.602039   16.410515
35   35   1     1.0000   8.141770   11.662897   2.357798
36   36   1     1.0000   8.141770   11.662897   16.410515
37   37   1     1.0000   19.057506   1.602039   2.357798
38   38   1     1.0000   19.057506   1.602039   16.410515
39   39   1     1.0000   19.057506   11.662897   2.357798
40   40   1     1.0000   19.057506   11.662897   16.410515
41   41   1     1.0000   8.474862   6.100302   2.212936
42   42   1     1.0000   8.474862   6.100302   16.265652
43   43   1     1.0000   8.474862   16.161160   2.212936
44   44   1     1.0000   8.474862   16.161160   16.265652
45   45   1     1.0000   19.390598   6.100302   2.212936
46   46   1     1.0000   19.390598   6.100302   16.265652
47   47   1     1.0000   19.390598   16.161160   2.212936
48   48   1     1.0000   19.390598   16.161160   16.265652
49   49   1     1.0000   10.578612   1.323368   2.243107
50   50   1     1.0000   10.578612   1.323368   16.295824
51   51   1     1.0000   10.578612   11.384226   2.243107
52   52   1     1.0000   10.578612   11.384226   16.295824
53   53   1     1.0000   21.494348   1.323368   2.243107
54   54   1     1.0000   21.494348   1.323368   16.295824
55   55   1     1.0000   21.494348   11.384226   2.243107
56   56   1     1.0000   21.494348   11.384226   16.295824
57   57   1     1.0000   10.733129   6.636836   2.421041
58   58   1     1.0000   10.733129   6.636836   16.473758
59   59   1     1.0000   10.733129   16.697694   2.421041
60   60   1     1.0000   10.733129   16.697694   16.473758
61   61   1     1.0000   21.648865   6.636836   2.421041
62   62   1     1.0000   21.648865   6.636836   16.473758
63   63   1     1.0000   21.648865   16.697694   2.421041
64   64   1     1.0000   21.648865   16.697694   16.473758
65   65   1     1.0000   1.410983   3.682828   2.584620
66   66   1     1.0000   1.410983   3.682828   16.637337
67   67   1     1.0000   1.410983   13.743686   2.584620
68   68   1     1.0000   1.410983   13.743686   16.637337
69   69   1     1.0000   12.326719   3.682828   2.584620
70   70   1     1.0000   12.326719   3.682828   16.637337
71   71   1     1.0000   12.326719   13.743686   2.584620
72   72   1     1.0000   12.326719   13.743686   16.637337
73   73   1     1.0000   1.547630   9.208581   2.578917
74   74   1     1.0000   1.547630   9.208581   16.631634
75   75   1     1.0000   1.547630   19.269439   2.578917
76   76   1     1.0000   1.547630   19.269439   16.631634
77   77   1     1.0000   12.463366   9.208581   2.578917
78   78   1     1.0000   12.463366   9.208581   16.631634
79   79   1     1.0000   12.463366   19.269439   2.578917
80   80   1     1.0000   12.463366   19.269439   16.631634
81   81   1     1.0000   3.931904   3.712948   2.635296
82   82   1     1.0000   3.931904   3.712948   16.688013
83   83   1     1.0000   3.931904   13.773805   2.635296
84   84   1     1.0000   3.931904   13.773805   16.688013
85   85   1     1.0000   14.847641   3.712948   2.635296
86   86   1     1.0000   14.847641   3.712948   16.688013
87   87   1     1.0000   14.847641   13.773805   2.635296
88   88   1     1.0000   14.847641   13.773805   16.688013
89   89   1     1.0000   4.159044   8.897292   2.291024
90   90   1     1.0000   4.159044   8.897292   16.343740
91   91   1     1.0000   4.159044   18.958149   2.291024
92   92   1     1.0000   4.159044   18.958149   16.343740
93   93   1     1.0000   15.074780   8.897292   2.291024
94   94   1     1.0000   15.074780   8.897292   16.343740
95   95   1     1.0000   15.074780   18.958149   2.291024
96   96   1     1.0000   15.074780   18.958149   16.343740
97   97   1     1.0000   6.771336   4.057924   2.379525
98   98   1     1.0000   6.771336   4.057924   16.432242
99   99   1     1.0000   6.771336   14.118782   2.379525
100  100  1     1.0000   6.771336   14.118782   16.432242
101  101  1     1.0000   17.687072   4.057924   2.379525
102  102  1     1.0000   17.687072   4.057924   16.432242
103  103  1     1.0000   17.687072   14.118782   2.379525
104  104  1     1.0000   17.687072   14.118782   16.432242
105  105  1     1.0000   6.725977   8.754333   2.216769
106  106  1     1.0000   6.725977   8.754333   16.269486
107  107  1     1.0000   6.725977   18.815191   2.216769
108  108  1     1.0000   6.725977   18.815191   16.269486
109  109  1     1.0000   17.641713   8.754333   2.216769
110  110  1     1.0000   17.641713   8.754333   16.269486
111  111  1     1.0000   17.641713   18.815191   2.216769
112  112  1     1.0000   17.641713   18.815191   16.269486
113  113  1     1.0000   9.538490   3.670440   2.175959
114  114  1     1.0000   9.538490   3.670440   16.228675
115  115  1     1.0000   9.538490   13.731298   2.175959
116  116  1     1.0000   9.538490   13.731298   16.228675
117  117  1     1.0000   20.454226   3.670440   2.175959
118  118  1     1.0000   20.454226   3.670440   16.228675
119  119  1     1.0000   20.454226   13.731298   2.175959
120  120  1     1.0000   20.454226   13.731298   16.228675
121  121  1     1.0000   9.536976   9.081048   2.092760
122  122  1     1.0000   9.536976   9.081048   16.145477
123  123  1     1.0000   9.536976   19.141906   2.092760
124  124  1     1.0000   9.536976   19.141906   16.145477
125  125  1     1.0000   20.452712   9.081048   2.092760
126  126  1     1.0000   20.452712   9.081048   16.145477
127  127  1     1.0000   20.452712   19.141906   2.092760
128  128  1     1.0000   20.452712   19.141906   16.145477
129  129  1     1.0000   1.337754   0.483165   11.677301
130  130  1     1.0000   1.337754   0.483165   25.730018
131  131  1     1.0000   1.337754   10.544023   11.677301
132  132  1     1.0000   1.337754   10.544023   25.730018
133  133  1     1.0000   12.253490   0.483165   11.677301
134  134  1     1.0000   12.253490   0.483165   25.730018
135  135  1     1.0000   12.253490   10.544023   11.677301
136  136  1     1.0000   12.253490   10.544023   25.730018
137  137  1     1.0000   1.261016   5.519975   11.660934
138  138  1     1.0000   1.261016   5.519975   25.713651
139  139  1     1.0000   1.261016   15.580833   11.660934
140  140  1     1.0000   1.261016   15.580833   25.713651
141  141  1     1.0000   12.176752   5.519975   11.660934
142  142  1     1.0000   12.176752   5.519975   25.713651
143  143  1     1.0000   12.176752   15.580833   11.660934
144  144  1     1.0000   12.176752   15.580833   25.713651
145  145  1     1.0000   4.307764   0.700335   11.592634
146  146  1     1.0000   4.307764   0.700335   25.645351
147  147  1     1.0000   4.307764   10.761193   11.592634
148  148  1     1.0000   4.307764   10.761193   25.645351
149  149  1     1.0000   15.223501   0.700335   11.592634
150  150  1     1.0000   15.223501   0.700335   25.645351
151  151  1     1.0000   15.223501   10.761193   11.592634
152  152  1     1.0000   15.223501   10.761193   25.645351
153  153  1     1.0000   4.024882   5.476063   11.575380
154  154  1     1.0000   4.024882   5.476063   25.628097
155  155  1     1.0000   4.024882   15.536920   11.575380
156  156  1     1.0000   4.024882   15.536920   25.628097
157  157  1     1.0000   14.940618   5.476063   11.575380
158  158  1     1.0000   14.940618   5.476063   25.628097
159  159  1     1.0000   14.940618   15.536920   11.575380
160  160  1     1.0000   14.940618   15.536920   25.628097
161  161  1     1.0000   6.995669   0.654791   11.814394
162  162  1     1.0000   6.995669   0.654791   25.867110
163  163  1     1.0000   6.995669   10.715648   11.814394
164  164  1     1.0000   6.995669   10.715648   25.867110
165  165  1     1.0000   17.911405   0.654791   11.814394
166  166  1     1.0000   17.911405   0.654791   25.867110
167  167  1     1.0000   17.911405   10.715648   11.814394
168  168  1     1.0000   17.911405   10.715648   25.867110
169  169  1     1.0000   6.682926   5.499297   11.665126
170  170  1     1.0000   6.682926   5.499297   25.717843
171  171  1     1.0000   6.682926   15.560154   11.665126
172  172  1     1.0000   6.682926   15.560154   25.717843
173  173  1     1.0000   17.598663   5.499297   11.665126
174  174  1     1.0000   17.598663   5.499297   25.717843
175  175  1     1.0000   17.598663   15.560154   11.665126
176  176  1     1.0000   17.598663   15.560154   25.717843
177  177  1     1.0000   9.638267   0.582710   11.900987
178  178  1     1.0000   9.638267   0.582710   25.953704
179  179  1     1.0000   9.638267   10.643567   11.900987
180  180  1     1.0000   9.638267   10.643567   25.953704
181  181  1     1.0000   20.554003   0.582710   11.900987
182  182  1     1.0000   20.554003   0.582710   25.953704
183  183  1     1.0000   20.554003   10.643567   11.900987
184  184  1     1.0000   20.554003   10.643567   25.953704
185  185  1     1.0000   9.316861   5.863622   11.984342
186  186  1     1.0000   9.316861   5.863622   26.037059
187  187  1     1.0000   9.316861   15.924479   11.984342
188  188  1     1.0000   9.316861   15.924479   26.037059
189  189  1     1.0000   20.232597   5.863622   11.984342
190  190  1     1.0000   20.232597   5.863622   26.037059
191  191  1     1.0000   20.232597   15.924479   11.984342
192  192  1     1.0000   20.232597   15.924479   26.037059
193  193  1     1.0000   0.049673   3.153860   11.890238
194  194  1     1.0000   0.049673   3.153860   25.942954
195  195  1     1.0000   0.049673   13.214718   11.890238
196  196  1     1.0000   0.049673   13.214718   25.942954
197  197  1     1.0000   10.965409   3.153860   11.890238
198  198  1     1.0000   10.965409   3.153860   25.942954
199  199  1     1.0000   10.965409   13.214718   11.890238
200  200  1     1.0000   10.965409   13.214718   25.942954
201  201  1     1.0000   0.000079   8.272889   11.622997
202  202  1     1.0000   0.000079   8.272889   25.675713
203  203  1     1.0000   0.000079   18.333747   11.622997
204  204  1     1.0000   0.000079   18.333747   25.675713
205  205  1     1.0000   10.915815   8.272889   11.622997
206  206  1     1.0000   10.915815   8.272889   25.675713
207  207  1     1.0000   10.915815   18.333747   11.622997
208  208  1     1.0000   10.915815   18.333747   25.675713
209  209  1     1.0000   2.435701   2.852968   11.685407
210  210  1     1.0000   2.435701   2.852968   25.738124
211  211  1     1.0000   2.435701   12.913825   11.685407
212  212  1     1.0000   2.435701   12.913825   25.738124
213  213  1     1.0000   13.351438   2.852968   11.685407
214  214  1     1.0000   13.351438   2.852968   25.738124
215  215  1     1.0000   13.351438   12.913825   11.685407
216  216  1     1.0000   13.351438   12.913825   25.738124
217  217  1     1.0000   2.999093   8.332507   11.577757
218  218  1     1.0000   2.999093   8.332507   25.630474
219  219  1     1.0000   2.999093   18.393365   11.577757
220  220  1     1.0000   2.999093   18.393365   25.630474
221  221  1     1.0000   13.914829   8.332507   11.577757
222  222  1     1.0000   13.914829   8.332507   25.630474
223  223  1     1.0000   13.914829   18.393365   11.577757
224  224  1     1.0000   13.914829   18.393365   25.630474
225  225  1     1.0000   5.481556   3.043932   11.717862
226  226  1     1.0000   5.481556   3.043932   25.770579
227  227  1     1.0000   5.481556   13.104789   11.717862
228  228  1     1.0000   5.481556   13.104789   25.770579
229  229  1     1.0000   16.397292   3.043932   11.717862
230  230  1     1.0000   16.397292   3.043932   25.770579
231  231  1     1.0000   16.397292   13.104789   11.717862
232  232  1     1.0000   16.397292   13.104789   25.770579
233  233  1     1.0000   5.260318   8.165741   11.454249
234  234  1     1.0000   5.260318   8.165741   25.506966
235  235  1     1.0000   5.260318   18.226599   11.454249
236  236  1     1.0000   5.260318   18.226599   25.506966
237  237  1     1.0000   16.176054   8.165741   11.454249
238  238  1     1.0000   16.176054   8.165741   25.506966
239  239  1     1.0000   16.176054   18.226599   11.454249
240  240  1     1.0000   16.176054   18.226599   25.506966
241  241  1     1.0000   8.534303   3.007268   11.885354
242  242  1     1.0000   8.534303   3.007268   25.938071
243  243  1     1.0000   8.534303   13.068126   11.885354
244  244  1     1.0000   8.534303   13.068126   25.938071
245  245  1     1.0000   19.450039   3.007268   11.885354
246  246  1     1.0000   19.450039   3.007268   25.938071
247  247  1     1.0000   19.450039   13.068126   11.885354
248  248  1     1.0000   19.450039   13.068126   25.938071
249  249  1     1.0000   8.148289   8.023569   11.980413
250  250  1     1.0000   8.148289   8.023569   26.033130
251  251  1     1.0000   8.148289   18.084427   11.980413
252  252  1     1.0000   8.148289   18.084427   26.033130
253  253  1     1.0000   19.064025   8.023569   11.980413
254  254  1     1.0000   19.064025   8.023569   26.033130
255  255  1     1.0000   19.064025   18.084427   11.980413
256  256  1     1.0000   19.064025   18.084427   26.033130
257  257  1     1.0000   10.895015   4.726850   6.835440
258  258  1     1.0000   10.895015   4.726850   20.888157
259  259  1     1.0000   10.895015   14.787708   6.835440
260  260  1     1.0000   10.895015   14.787708   20.888157
261  261  1     1.0000   21.810751   4.726850   6.835440
262  262  1     1.0000   21.810751   4.726850   20.888157
263  263  1     1.0000   21.810751   14.787708   6.835440
264  264  1     1.0000   21.810751   14.787708   20.888157
265  265  1     1.0000   0.176233   9.695953   6.873081
266  266  1     1.0000   0.176233   9.695953   20.925798
267  267  1     1.0000   0.176233   19.756811   6.873081
268  268  1     1.0000   0.176233   19.756811   20.925798
269  269  1     1.0000   11.091969   9.695953   6.873081
270  270  1     1.0000   11.091969   9.695953   20.925798
271  271  1     1.0000   11.091969   19.756811   6.873081
272  272  1     1.0000   11.091969   19.756811   20.925798
273  273  1     1.0000   2.790336   4.795255   7.097825
274  274  1     1.0000   2.790336   4.795255   21.150541
275  275  1     1.0000   2.790336   14.856113   7.097825
276  276  1     1.0000   2.790336   14.856113   21.150541
277  277  1     1.0000   13.706072   4.795255   7.097825
278  278  1     1.0000   13.706072   4.795255   21.150541
279  279  1     1.0000   13.706072   14.856113   7.097825
280  280  1     1.0000   13.706072   14.856113   21.150541
281  281  1     1.0000   2.725319   9.516223   6.799134
282  282  1     1.0000   2.725319   9.516223   20.851851
283  283  1     1.0000   2.725319   19.577081   6.799134
284  284  1     1.0000   2.725319   19.577081   20.851851
285  285  1     1.0000   13.641056   9.516223   6.799134
286  286  1     1.0000   13.641056   9.516223   20.851851
287  287  1     1.0000   13.641056   19.577081   6.799134
288  288  1     1.0000   13.641056   19.577081   20.851851
289  289  1     1.0000   5.733956   4.595893   7.035656
290  290  1     1.0000   5.733956   4.595893   21.088373
291  291  1     1.0000   5.733956   14.656751   7.035656
292  292  1     1.0000   5.733956   14.656751   21.088373
293  293  1     1.0000   16.649692   4.595893   7.035656
294  294  1     1.0000   16.649692   4.595893   21.088373
295  295  1     1.0000   16.649692   14.656751   7.035656
296  296  1     1.0000   16.649692   14.656751   21.088373
297  297  1     1.0000   5.211017   9.613368   6.988432
298  298  1     1.0000   5.211017   9.613368   21.041149
299  299  1     1.0000   5.211017   19.674226   6.988432
300  300  1     1.0000   5.211017   19.674226   21.041149
301  301  1     1.0000   16.126753   9.613368   6.988432
302  302  1     1.0000   16.126753   9.613368   21.041149
303  303  1     1.0000   16.126753   19.674226   6.988432
304  304  1     1.0000   16.126753   19.674226   21.041149
305  305  1     1.0000   8.387506   4.587279   7.251718
306  306  1     1.0000   8.387506   4.587279   21.304435
307  307  1     1.0000   8.387506   14.648137   7.251718
308  308  1     1.0000   8.387506   14.648137   21.304435
309  309  1     1.0000   19.303243   4.587279   7.251718
310  310  1     1.0000   19.303243   4.587279   21.304435
311  311  1     1.0000   19.303243   14.648137   7.251718
312  312  1     1.0000   19.303243   14.648137   21.304435
313  313  1     1.0000   8.104974   9.527733   7.095724
314  314  1     1.0000   8.104974   9.527733   21.148441
315  315  1     1.0000   8.104974   19.588591   7.095724
316  316  1     1.0000   8.104974   19.588591   21.148441
317  317  1     1.0000   19.020711   9.527733   7.095724
318  318  1     1.0000   19.020711   9.527733   21.148441
319  319  1     1.0000   19.020711   19.588591   7.095724
320  320  1     1.0000   19.020711   19.588591   21.148441
321  321  1     1.0000   1.413969   2.318800   7.038628
322  322  1     1.0000   1.413969   2.318800   21.091345
323  323  1     1.0000   1.413969   12.379657   7.038628
324  324  1     1.0000   1.413969   12.379657   21.091345
325  325  1     1.0000   12.329706   2.318800   7.038628
326  326  1     1.0000   12.329706   2.318800   21.091345
327  327  1     1.0000   12.329706   12.379657   7.038628
328  328  1     1.0000   12.329706   12.379657   21.091345
329  329  1     1.0000   1.380072   7.482350   7.016755
330  330  1     1.0000   1.380072   7.482350   21.069472
331  331  1     1.0000   1.380072   17.543208   7.016755
332  332  1     1.0000   1.380072   17.543208   21.069472
333  333  1     1.0000   12.295808   7.482350   7.016755
334  334  1     1.0000   12.295808   7.482350   21.069472
335  335  1     1.0000   12.295808   17.543208   7.016755
336  336  1     1.0000   12.295808   17.543208   21.069472
337  337  1     1.0000   4.025719   2.054820   7.173378
338  338  1     1.0000   4.025719   2.054820   21.226095
339  339  1     1.0000   4.025719   12.115677   7.173378
340  340  1     1.0000   4.025719   12.115677   21.226095
341  341  1     1.0000   14.941455   2.054820   7.173378
342  342  1     1.0000   14.941455   2.054820   21.226095
343  343  1     1.0000   14.941455   12.115677   7.173378
344  344  1     1.0000   14.941455   12.115677   21.226095
345  345  1     1.0000   4.282344   7.350514   7.001084
346  346  1     1.0000   4.282344   7.350514   21.053801
347  347  1     1.0000   4.282344   17.411372   7.001084
348  348  1     1.0000   4.282344   17.411372   21.053801
349  349  1     1.0000   15.198080   7.350514   7.001084
350  350  1     1.0000   15.198080   7.350514   21.053801
351  351  1     1.0000   15.198080   17.411372   7.001084
352  352  1     1.0000   15.198080   17.411372   21.053801
353  353  1     1.0000   6.956146   2.264945   6.767073
354  354  1     1.0000   6.956146   2.264945   20.819790
355  355  1     1.0000   6.956146   12.325803   6.767073
356  356  1     1.0000   6.956146   12.325803   20.819790
357  357  1     1.0000   17.871883   2.264945   6.767073
358  358  1     1.0000   17.871883   2.264945   20.819790
359  359  1     1.0000   17.871883   12.325803   6.767073
360  360  1     1.0000   17.871883   12.325803   20.819790
361  361  1     1.0000   6.826573   7.329957   7.003502
362  362  1     1.0000   6.826573   7.329957   21.056218
363  363  1     1.0000   6.826573   17.390815   7.003502
364  364  1     1.0000   6.826573   17.390815   21.056218
365  365  1     1.0000   17.742309   7.329957   7.003502
366  366  1     1.0000   17.742309   7.329957   21.056218
367  367  1     1.0000   17.742309   17.390815   7.003502
368  368  1     1.0000   17.742309   17.390815   21.056218
369  369  1     1.0000   9.767160   2.092493   7.087788
370  370  1     1.0000   9.767160   2.092493   21.140505
371  371  1     1.0000   9.767160   12.153351   7.087788
372  372  1     1.0000   9.767160   12.153351   21.140505
373  373  1     1.0000   20.682896   2.092493   7.087788
374  374  1     1.0000   20.682896   2.092493   21.140505
375  375  1     1.0000   20.682896   12.153351   7.087788
376  376  1     1.0000   20.682896   12.153351   21.140505
377  377  1     1.0000   9.538953   7.234213   6.858116
378  378  1     1.0000   9.538953   7.234213   20.910832
379  379  1     1.0000   9.538953   17.295071   6.858116
380  380  1     1.0000   9.538953   17.295071   20.910832
381  381  1     1.0000   20.454689   7.234213   6.858116
382  382  1     1.0000   20.454689   7.234213   20.910832
383  383  1     1.0000   20.454689   17.295071   6.858116
384  384  1     1.0000   20.454689   17.295071   20.910832
385  385  2     3.0000   0.044885   4.807326   13.939214
386  386  2     3.0000   0.044885   4.807326   27.991930
387  387  2     3.0000   0.044885   14.868184   13.939214
388  388  2     3.0000   0.044885   14.868184   27.991930
389  389  2     3.0000   10.960621   4.807326   13.939214
390  390  2     3.0000   10.960621   4.807326   27.991930
391  391  2     3.0000   10.960621   14.868184   13.939214
392  392  2     3.0000   10.960621   14.868184   27.991930
393  393  2     3.0000   0.059171   9.788869   14.044314
394  394  2     3.0000   0.059171   9.788869   28.097031
395  395  2     3.0000   0.059171   19.849726   14.044314
396  396  2     3.0000   0.059171   19.849726   28.097031
397  397  2     3.0000   10.974907   9.788869   14.044314
398  398  2     3.0000   10.974907   9.788869   28.097031
399  399  2     3.0000   10.974907   19.849726   14.044314
400  400  2     3.0000   10.974907   19.849726   28.097031
401  401  2     3.0000   2.799928   4.725475   13.948326
402  402  2     3.0000   2.799928   4.725475   28.001043
403  403  2     3.0000   2.799928   14.786332   13.948326
404  404  2     3.0000   2.799928   14.786332   28.001043
405  405  2     3.0000   13.715665   4.725475   13.948326
406  406  2     3.0000   13.715665   4.725475   28.001043
407  407  2     3.0000   13.715665   14.786332   13.948326
408  408  2     3.0000   13.715665   14.786332   28.001043
409  409  2     3.0000   2.742045   9.830899   0.096227
410  410  2     3.0000   2.742045   9.830899   14.148943
411  411  2     3.0000   2.742045   19.891757   0.096227
412  412  2     3.0000   2.742045   19.891757   14.148943
413  413  2     3.0000   13.657781   9.830899   0.096227
414  414  2     3.0000   13.657781   9.830899   14.148943
415  415  2     3.0000   13.657781   19.891757   0.096227
416  416  2     3.0000   13.657781   19.891757   14.148943
417  417  2     3.0000   5.436324   4.829868   0.048466
418  418  2     3.0000   5.436324   4.829868   14.101183
419  419  2     3.0000   5.436324   14.890726   0.048466
420  420  2     3.0000   5.436324   14.890726   14.101183
421  421  2     3.0000   16.352060   4.829868   0.048466
422  422  2     3.0000   16.352060   4.829868   14.101183
423  423  2     3.0000   16.352060   14.890726   0.048466
424  424  2     3.0000   16.352060   14.890726   14.101183
425  425  2     3.0000   5.560447   9.788590   0.040927
426  426  2     3.0000   5.560447   9.788590   14.093643
427  427  2     3.0000   5.560447   19.849447   0.040927
428  428  2     3.0000   5.560447   19.849447   14.093643
429  429  2     3.0000   16.476183   9.788590   0.040927
430  430  2     3.0000   16.476183   9.788590   14.093643
431  431  2     3.0000   16.476183   19.849447   0.040927
432  432  2     3.0000   16.476183   19.849447   14.093643
433  433  2     3.0000   8.271789   4.669838   0.090645
434  434  2     3.0000   8.271789   4.669838   14.143362
435  435  2     3.0000   8.271789   14.730696   0.090645
436  436  2     3.0000   8.271789   14.730696   14.143362
437  437  2     3.0000   19.187525   4.669838   0.090645
438  438  2     3.0000   19.187525   4.669838   14.143362
439  439  2     3.0000   19.187525   14.730696   0.090645
440  440  2     3.0000   19.187525   14.730696   14.143362
441  441  2     3.0000   8.303139   9.792931   14.015721
442  442  2     3.0000   8.303139   9.792931   28.068437
443  443  2     3.0000   8.303139   19.853788   14.015721
444  444  2     3.0000   8.303139   19.853788   28.068437
445  445  2     3.0000   19.218875   9.792931   14.015721
446  446  2     3.0000   19.218875   9.792931   28.068437
447  447  2     3.0000   19.218875   19.853788   14.015721
448  448  2     3.0000   19.218875   19.853788   28.068437
449  449  2     3.0000   1.406372   2.241223   14.052205
450  450  2     3.0000   1.406372   2.241223   28.104922
451  451  2     3.0000   1.406372   12.302081   14.052205
452  452  2     3.0000   1.406372   12.302081   28.104922
453  453  2     3.0000   12.322108   2.241223   14.052205
454  454  2     3.0000   12.322108   2.241223   28.104922
455  455  2     3.0000   12.322108   12.302081   14.052205
456  456  2     3.0000   12.322108   12.302081   28.104922
457  457  2     3.0000   1.505198   7.240093   13.997087
458  458  2     3.0000   1.505198   7.240093   28.049803
459  459  2     3.0000   1.505198   17.300951   13.997087
460  460  2     3.0000   1.505198   17.300951   28.049803
461  461  2     3.0000   12.420934   7.240093   13.997087
462  462  2     3.0000   12.420934   7.240093   28.049803
463  463  2     3.0000   12.420934   17.300951   13.997087
464  464  2     3.0000   12.420934   17.300951   28.049803
465  465  2     3.0000   4.179771   2.243161   0.025057
466  466  2     3.0000   4.179771   2.243161   14.077774
467  467  2     3.0000   4.179771   12.304019   0.025057
468  468  2     3.0000   4.179771   12.304019   14.077774
469  469  2     3.0000   15.095508   2.243161   0.025057
470  470  2     3.0000   15.095508   2.243161   14.077774
471  471  2     3.0000   15.095508   12.304019   0.025057
472  472  2     3.0000   15.095508   12.304019   14.077774
473  473  2     3.0000   4.062343   7.232438   13.960143
474  474  2     3.0000   4.062343   7.232438   28.012860
475  475  2     3.0000   4.062343   17.293295   13.960143
476  476  2     3.0000   4.062343   17.293295   28.012860
477  477  2     3.0000   14.978079   7.232438   13.960143
478  478  2     3.0000   14.978079   7.232438   28.012860
479  479  2     3.0000   14.978079   17.293295   13.960143
480  480  2     3.0000   14.978079   17.293295   28.012860
481  481  2     3.0000   6.905554   2.222845   0.003505
482  482  2     3.0000   6.905554   2.222845   14.056222
483  483  2     3.0000   6.905554   12.283702   0.003505
484  484  2     3.0000   6.905554   12.283702   14.056222
485  485  2     3.0000   17.821290   2.222845   0.003505
486  486  2     3.0000   17.821290   2.222845   14.056222
487  487  2     3.0000   17.821290   12.283702   0.003505
488  488  2     3.0000   17.821290   12.283702   14.056222
489  489  2     3.0000   6.766948   7.215152   0.128059
490  490  2     3.0000   6.766948   7.215152   14.180776
491  491  2     3.0000   6.766948   17.276010   0.128059
492  492  2     3.0000   6.766948   17.276010   14.180776
493  493  2     3.0000   17.682684   7.215152   0.128059
494  494  2     3.0000   17.682684   7.215152   14.180776
495  495  2     3.0000   17.682684   17.276010   0.128059
496  496  2     3.0000   17.682684   17.276010   14.180776
497  497  2     3.0000   9.671933   2.358009   13.933605
498  498  2     3.0000   9.671933   2.358009   27.986321
499  499  2     3.0000   9.671933   12.418867   13.933605
500  500  2     3.0000   9.671933   12.418867   27.986321
501  501  2     3.0000   20.587669   2.358009   13.933605
502  502  2     3.0000   20.587669   2.358009   27.986321
503  503  2     3.0000   20.587669   12.418867   13.933605
504  504  2     3.0000   20.587669   12.418867   27.986321
505  505  2     3.0000   9.636821   7.286287   0.080462
506  506  2     3.0000   9.636821   7.286287   14.133178
507  507  2     3.0000   9.636821   17.347145   0.080462
508  508  2     3.0000   9.636821   17.347145   14.133178
509  509  2     3.0000   20.552558   7.286287   0.080462
510  510  2     3.0000   20.552558   7.286287   14.133178
511  511  2     3.0000   20.552558   17.347145   0.080462
512  512  2     3.0000   20.552558   17.347145   14.133178
513  513  2     3.0000   1.343173   0.449245   4.588921
514  514  2     3.0000   1.343173   0.449245   18.641637
515  515  2     3.0000   1.343173   10.510103   4.588921
516  516  2     3.0000   1.343173   10.510103   18.641637