title

192   atoms
3   atom types

0.0 10.915736 xlo xhi
0.0 10.060858 ylo yhi
0.0 14.052717 zlo zhi

0.00000 0.00000 0.00000 xy xz yz 

Masses

1   6.94100 # Li
2  58.69340 # Ni
3  15.99900 # O

Atoms

1    1    1     1.0000   2.833447   1.162474   2.499307
2    2    1     1.0000   2.708637   6.427256   2.492271
3    3    1     1.0000   5.526457   1.412906   2.327738
4    4    1     1.0000   5.241492   6.583637   2.256379
5    5    1     1.0000   8.191008   1.348099   2.382351
6    6    1     1.0000   7.801031   6.263039   2.245407
7    7    1     1.0000   10.699769   1.543554   2.476397
8    8    1     1.0000   10.877610   6.203705   2.448118
9    9    1     1.0000   1.397443   3.942222   2.326918
10   10   1     1.0000   1.312905   8.897140   2.484783
11   11   1     1.0000   4.122879   4.182190   2.137297
12   12   1     1.0000   4.242795   9.071539   2.291876
13   13   1     1.0000   6.905367   3.887139   2.506367
14   14   1     1.0000   7.087563   8.862700   2.321622
15   15   1     1.0000   9.590472   3.748415   2.445305
16   16   1     1.0000   9.723968   8.695307   2.345463
17   17   1     1.0000   1.558992   0.802707   11.723441
18   18   1     1.0000   1.456773   5.832537   11.897906
19   19   1     1.0000   4.108320   0.831517   11.466239
20   20   1     1.0000   4.017246   5.979413   11.501375
21   21   1     1.0000   7.076180   0.458286   11.791668
22   22   1     1.0000   6.815601   5.317831   11.410118
23   23   1     1.0000   9.605684   0.794060   11.796379
24   24   1     1.0000   9.296515   5.628211   11.834654
25   25   1     1.0000   0.155345   2.885099   11.816669
26   26   1     1.0000   0.217365   8.092772   11.885288
27   27   1     1.0000   2.925976   3.105298   11.612555
28   28   1     1.0000   2.607578   8.241856   11.792872
29   29   1     1.0000   5.547633   2.892759   12.020246
30   30   1     1.0000   5.529420   8.249501   11.538785
31   31   1     1.0000   8.207630   2.852795   12.019861
32   32   1     1.0000   8.192573   8.120897   11.349159
33   33   1     1.0000   10.898015   4.488548   7.122608
34   34   1     1.0000   0.309653   9.468689   7.287917
35   35   1     1.0000   2.582883   4.922599   6.642301
36   36   1     1.0000   2.592802   9.901520   6.865672
37   37   1     1.0000   5.410481   4.800110   6.820629
38   38   1     1.0000   5.461554   9.818915   7.222690
39   39   1     1.0000   8.192018   4.604476   6.954003
40   40   1     1.0000   8.380717   9.585167   6.992874
41   41   1     1.0000   1.570247   2.305788   7.254430
42   42   1     1.0000   1.336940   7.016882   7.162100
43   43   1     1.0000   4.046338   2.410788   6.915436
44   44   1     1.0000   3.987877   7.357290   7.057694
45   45   1     1.0000   6.987571   2.248156   6.733630
46   46   1     1.0000   6.740501   7.123075   7.070749
47   47   1     1.0000   9.664410   1.998008   6.953858
48   48   1     1.0000   9.569169   7.317089   6.943635
49   49   2     3.0000   10.774199   4.709957   0.199622
50   50   2     3.0000   10.859820   9.622671   0.309825
51   51   2     3.0000   2.884761   4.624058   0.003455
52   52   2     3.0000   2.732973   9.675941   14.039959
53   53   2     3.0000   5.579992   4.830126   13.953755
54   54   2     3.0000   5.314980   9.633865   13.896456
55   55   2     3.0000   8.202994   4.780213   0.103977
56   56   2     3.0000   7.989607   9.772674   0.129271
57   57   2     3.0000   1.374197   2.208293   0.102818
58   58   2     3.0000   1.308527   7.248453   0.176853
59   59   2     3.0000   4.002844   2.107319   0.033350
60   60   2     3.0000   4.079226   7.302072   13.731213
61   61   2     3.0000   6.730233   2.114784   0.146176
62   62   2     3.0000   6.711227   7.253935   13.730377
63   63   2     3.0000   9.614007   2.065393   0.097004
64   64   2     3.0000   9.579388   7.320766   14.006704
65   65   2     3.0000   1.406859   0.561176   4.859239
66   66   2     3.0000   1.336452   5.447581   4.781345
67   67   2     3.0000   4.277119   0.417488   4.628715
68   68   2     3.0000   4.147919   5.666159   4.408671
69   69   2     3.0000   6.869528   0.425059   4.746360
70   70   2     3.0000   6.986873   5.638276   4.575176
71   71   2     3.0000   9.859039   0.319424   4.845989
72   72   2     3.0000   9.505788   5.456537   4.800541
73   73   2     3.0000   2.786247   2.872003   4.734479
74   74   2     3.0000   2.614834   7.964422   4.560091
75   75   2     3.0000   5.581196   3.237365   4.466373
76   76   2     3.0000   5.498549   8.205210   4.651095
77   77   2     3.0000   8.369285   2.931963   4.801549
78   78   2     3.0000   8.138522   7.921427   4.658838
79   79   2     3.0000   0.127733   2.954725   4.778136
80   80   2     3.0000   10.807379   7.879129   4.712612
81   81   2     3.0000   0.049443   1.254445   9.511133
82   82   2     3.0000   0.008867   6.375730   9.534255
83   83   2     3.0000   2.785446   1.475446   9.305889
84   84   2     3.0000   2.744875   6.455336   9.455373
85   85   2     3.0000   5.326422   1.442266   9.318585
86   86   2     3.0000   5.419119   6.535090   9.117478
87   87   2     3.0000   8.019988   1.403516   9.397896
88   88   2     3.0000   8.202350   6.255325   9.268377
89   89   2     3.0000   1.205455   3.837034   9.525186
90   90   2     3.0000   1.392719   8.850896   9.535218
91   91   2     3.0000   3.956724   3.903775   9.303988
92   92   2     3.0000   3.980652   9.089614   9.233175
93   93   2     3.0000   6.677875   3.932133   9.271814
94   94   2     3.0000   6.882690   8.999179   9.177264
95   95   2     3.0000   9.504231   3.789081   9.450820
96   96   2     3.0000   9.433174   8.879614   9.142385
97   97   3    -2.0000   2.790069   4.515793   3.861598
98   98   3    -2.0000   2.750965   9.760481   3.735785
99   99   3    -2.0000   5.401140   4.927317   3.321684
100  100  3    -2.0000   5.703299   9.948476   3.470638
101  101  3    -2.0000   8.261337   4.645156   3.634015
102  102  3    -2.0000   8.341268   9.636009   3.990428
103  103  3    -2.0000   10.871822   4.716460   3.686439
104  104  3    -2.0000   0.047303   9.263430   3.566090
105  105  3    -2.0000   1.455889   2.154639   3.778491
106  106  3    -2.0000   1.230960   7.199239   3.483560
107  107  3    -2.0000   4.273612   2.146668   3.640959
108  108  3    -2.0000   4.154201   7.479074   3.481867
109  109  3    -2.0000   7.124403   2.084421   3.706331
110  110  3    -2.0000   6.812291   6.988219   3.506305
111  111  3    -2.0000   9.735841   2.137192   3.847532
112  112  3    -2.0000   9.412682   6.963434   3.715255
113  113  3    -2.0000   10.853630   4.571352   10.624850
114  114  3    -2.0000   0.114351   9.621917   10.583976
115  115  3    -2.0000   2.673971   4.772988   10.291890
116  116  3    -2.0000   2.829806   0.021913   10.359514
117  117  3    -2.0000   5.079180   4.858778   10.219974
118  118  3    -2.0000   5.420923   9.781986   10.142557
119  119  3    -2.0000   8.048040   4.840364   10.307942
120  120  3    -2.0000   8.108205   9.940074   10.245468
121  121  3    -2.0000   1.360017   2.367326   10.465453
122  122  3    -2.0000   1.408851   7.270460   10.642126
123  123  3    -2.0000   4.127443   2.210828   10.390395
124  124  3    -2.0000   4.053184   7.524623   10.259468
125  125  3    -2.0000   6.906266   2.183662   10.600161
126  126  3    -2.0000   6.592989   7.198838   10.339474
127  127  3    -2.0000   9.463035   2.314738   10.403291
128  128  3    -2.0000   9.314577   6.998304   10.343007
129  129  3    -2.0000   1.354337   0.346415   8.371570
130  130  3    -2.0000   1.457875   5.466432   8.385717
131  131  3    -2.0000   3.926742   0.370301   8.130619
132  132  3    -2.0000   4.123948   5.771641   8.015837
133  133  3    -2.0000   6.870413   0.541926   8.115587
134  134  3    -2.0000   6.674449   5.580404   8.200649
135  135  3    -2.0000   9.429427   0.573466   8.344660
136  136  3    -2.0000   9.493050   5.462019   8.372523
137  137  3    -2.0000   10.771734   2.937980   8.533840
138  138  3    -2.0000   0.078824   8.045212   8.453571
139  139  3    -2.0000   2.738333   2.901594   8.448169
140  140  3    -2.0000   2.545914   8.116752   8.411695
141  141  3    -2.0000   5.373345   2.966491   8.206378
142  142  3    -2.0000   5.419665   8.286069   8.147520
143  143  3    -2.0000   8.129719   2.997981   8.465616
144  144  3    -2.0000   8.217517   7.748020   8.241849
145  145  3    -2.0000   1.253832   0.641544   1.173426
146  146  3    -2.0000   1.450610   5.462998   0.915299
147  147  3    -2.0000   3.900398   0.362368   1.083106
148  148  3    -2.0000   4.368704   5.715212   0.829741
149  149  3    -2.0000   6.633643   0.371457   1.075442
150  150  3    -2.0000   6.814431   5.723845   0.812406
151  151  3    -2.0000   9.428259   0.451852   1.330959
152  152  3    -2.0000   9.424339   5.791863   1.144197
153  153  3    -2.0000   0.047690   3.166907   1.155828
154  154  3    -2.0000   10.652492   7.878330   1.195851
155  155  3    -2.0000   2.982478   3.195867   1.199507
156  156  3    -2.0000   2.488621   8.026890   1.137740
157  157  3    -2.0000   5.486272   3.165874   0.946737
158  158  3    -2.0000   5.406454   7.985825   0.819979
159  159  3    -2.0000   7.842943   3.161143   1.132127
160  160  3    -2.0000   8.372302   8.148423   1.354769
161  161  3    -2.0000   0.063602   1.426681   12.916751
162  162  3    -2.0000   0.084994   6.044293   13.002992
163  163  3    -2.0000   2.635905   1.200530   13.078792
164  164  3    -2.0000   2.832295   6.051996   13.060164
165  165  3    -2.0000   5.396257   1.333932   13.117434
166  166  3    -2.0000   5.491745   6.395648   12.517474
167  167  3    -2.0000   8.012821   1.476407   13.094114
168  168  3    -2.0000   8.218430   6.539304   12.947700
169  169  3    -2.0000   1.476012   3.670446   13.081674
170  170  3    -2.0000   1.333318   8.895075   13.295458
171  171  3    -2.0000   4.141584   3.847698   13.170978
172  172  3    -2.0000   3.936808   8.924206   12.653642
173  173  3    -2.0000   6.807744   4.049591   12.810102
174  174  3    -2.0000   6.979148   8.822093   12.761848
175  175  3    -2.0000   9.516236   3.927297   13.268079
176  176  3    -2.0000   9.618801   8.977310   13.174991
177  177  3    -2.0000   3.002106   1.283033   5.772953
178  178  3    -2.0000   2.836371   6.419592   5.542330
179  179  3    -2.0000   5.709055   1.301954   5.579774
180  180  3    -2.0000   5.517472   6.385240   5.464104
181  181  3    -2.0000   8.324578   1.144165   5.735992
182  182  3    -2.0000   8.229770   6.496049   5.796343
183  183  3    -2.0000   0.225135   1.438414   5.855537
184  184  3    -2.0000   0.090697   6.290798   5.791094
185  185  3    -2.0000   1.409625   3.669843   5.941196
186  186  3    -2.0000   1.443030   8.602379   5.866665
187  187  3    -2.0000   4.064687   3.771011   5.587601
188  188  3    -2.0000   4.299408   9.078748   5.745661
189  189  3    -2.0000   6.975921   3.987823   5.551551
190  190  3    -2.0000   6.912507   8.888272   5.635593
191  191  3    -2.0000   9.711901   3.848580   5.829160
192  192  3    -2.0000   9.617347   8.598223   5.785956

