title

288   atoms
96   bonds

4   atom types
1   bond types


0.0 10.915736 xlo xhi
0.0 10.060858 ylo yhi
0.0 14.052717 zlo zhi

0.00000 0.00000 0.00000 xy xz yz 

Masses

1   6.94100 # Li
2  58.69340 # Ni
3  14.39910 # O core
4   1.59990 # O shell

Atoms

1    1    1     1.0000   2.666540   1.446758   2.312332
2    2    1     1.0000   2.845634   6.682438   2.336121
3    3    1     1.0000   5.596769   1.292599   2.117299
4    4    1     1.0000   5.678723   6.524981   2.394238
5    5    1     1.0000   8.172427   1.493424   2.277159
6    6    1     1.0000   8.010494   6.338041   2.264479
7    7    1     1.0000   0.197364   0.996079   2.269712
8    8    1     1.0000   10.839276   6.424326   2.167315
9    9    1     1.0000   1.662324   3.898266   2.405075
10   10   1     1.0000   1.495224   8.593000   2.435136
11   11   1     1.0000   4.234497   4.002257   2.333945
12   12   1     1.0000   4.341998   8.729943   2.355291
13   13   1     1.0000   6.912813   3.811351   2.410528
14   14   1     1.0000   6.667801   9.039070   2.492672
15   15   1     1.0000   9.551994   3.858105   2.176590
16   16   1     1.0000   9.372308   8.529967   2.364600
17   17   1     1.0000   1.371471   0.736527   11.919120
18   18   1     1.0000   1.141104   5.093607   11.604237
19   19   1     1.0000   3.923886   0.331107   11.690633
20   20   1     1.0000   3.959150   5.773725   11.515549
21   21   1     1.0000   6.945561   0.579392   11.737701
22   22   1     1.0000   6.483062   5.670831   11.517249
23   23   1     1.0000   9.531871   0.536788   11.742319
24   24   1     1.0000   9.465939   5.315370   11.573385
25   25   1     1.0000   0.044017   2.889937   11.817841
26   26   1     1.0000   10.861743   8.134933   11.687581
27   27   1     1.0000   2.892421   3.299397   11.821762
28   28   1     1.0000   2.598320   8.281470   11.688549
29   29   1     1.0000   5.037508   3.205621   11.545289
30   30   1     1.0000   5.674557   7.847577   11.843625
31   31   1     1.0000   8.325026   3.135991   11.709726
32   32   1     1.0000   8.123942   8.189593   11.468159
33   33   1     1.0000   10.840731   4.825071   7.093886
34   34   1     1.0000   0.257630   9.588964   7.146238
35   35   1     1.0000   2.666004   4.846501   7.062685
36   36   1     1.0000   2.838994   9.699024   7.178870
37   37   1     1.0000   5.415854   4.876574   6.926322
38   38   1     1.0000   5.339028   9.930744   6.964291
39   39   1     1.0000   8.297413   4.788810   7.063662
40   40   1     1.0000   8.285432   9.954020   6.985681
41   41   1     1.0000   1.362140   2.239426   6.943976
42   42   1     1.0000   1.338979   7.291826   7.117103
43   43   1     1.0000   3.968430   2.291104   7.021029
44   44   1     1.0000   3.931727   7.341972   7.051476
45   45   1     1.0000   6.556860   2.257323   7.041406
46   46   1     1.0000   6.611701   7.313480   7.176681
47   47   1     1.0000   9.558053   2.265884   7.094901
48   48   1     1.0000   9.552106   7.337831   6.811538
49   49   2     3.0000   0.007358   4.654021   0.027495
50   50   2     3.0000   10.778238   9.629378   0.111191
51   51   2     3.0000   2.814276   4.704930   0.026872
52   52   2     3.0000   2.794037   9.717479   0.009919
53   53   2     3.0000   5.588698   4.611619   14.046174
54   54   2     3.0000   5.554524   9.742403   13.949165
55   55   2     3.0000   8.205695   4.596435   14.024443
56   56   2     3.0000   8.130388   9.759591   0.042932
57   57   2     3.0000   1.584880   2.210473   14.052106
58   58   2     3.0000   1.536760   7.138897   13.909141
59   59   2     3.0000   4.234421   2.093155   14.024742
60   60   2     3.0000   4.101297   7.124171   0.072919
61   61   2     3.0000   6.849417   2.211726   13.979777
62   62   2     3.0000   6.941344   6.993171   14.006738
63   63   2     3.0000   9.570350   2.244696   14.021486
64   64   2     3.0000   9.527638   6.936012   0.086984
65   65   2     3.0000   1.417143   0.481870   4.407126
66   66   2     3.0000   1.512929   5.512036   4.658738
67   67   2     3.0000   3.963035   0.597485   4.697179
68   68   2     3.0000   4.314914   5.523240   4.727186
69   69   2     3.0000   6.676792   0.468410   4.802347
70   70   2     3.0000   6.927820   5.479349   4.732840
71   71   2     3.0000   9.414286   0.342756   4.656138
72   72   2     3.0000   9.544775   5.387151   4.795604
73   73   2     3.0000   2.798119   3.098031   4.742455
74   74   2     3.0000   2.908515   8.046176   4.786261
75   75   2     3.0000   5.571200   2.909285   4.841595
76   76   2     3.0000   5.500846   8.139401   4.716914
77   77   2     3.0000   8.174171   3.010147   4.676338
78   78   2     3.0000   8.212861   7.957149   4.744336
79   79   2     3.0000   0.021949   2.975992   4.601706
80   80   2     3.0000   0.149790   8.025323   4.725714
81   81   2     3.0000   10.589583   1.409198   9.343806
82   82   2     3.0000   0.025292   6.460146   9.485342
83   83   2     3.0000   2.729707   1.266087   9.312108
84   84   2     3.0000   2.576166   6.521277   9.358683
85   85   2     3.0000   5.266190   1.356709   9.369432
86   86   2     3.0000   5.369777   6.524646   9.299397
87   87   2     3.0000   8.120565   1.402056   9.267946
88   88   2     3.0000   8.145319   6.509614   9.325418
89   89   2     3.0000   1.312902   3.841781   9.309617
90   90   2     3.0000   1.217618   8.989834   9.520881
91   91   2     3.0000   4.067975   4.033182   9.285137
92   92   2     3.0000   4.114281   8.949837   9.479915
93   93   2     3.0000   6.746979   3.848633   9.425919
94   94   2     3.0000   6.744535   9.105642   9.249427
95   95   2     3.0000   9.511224   3.899194   9.279953
96   96   2     3.0000   9.431952   8.843270   9.440351
97   97   3    -2.0000   3.047359   4.797054   3.673576
98   97   4     0.0000   3.047359   4.797054   3.673576
99   98   3    -2.0000   2.620290   9.731319   3.485480
100  98   4     0.0000   2.620290   9.731319   3.485480
101  99   3    -2.0000   5.563349   4.534522   3.704179
102  99   4     0.0000   5.563349   4.534522   3.704179
103  100  3    -2.0000   5.408242   9.822130   3.756716
104  100  4     0.0000   5.408242   9.822130   3.756716
105  101  3    -2.0000   8.105667   4.594754   3.652419
106  101  4     0.0000   8.105667   4.594754   3.652419
107  102  3    -2.0000   8.206339   9.463300   3.665883
108  102  4     0.0000   8.206339   9.463300   3.665883
109  103  3    -2.0000   0.002834   4.669692   3.583914
110  103  4     0.0000   0.002834   4.669692   3.583914
111  104  3    -2.0000   0.021476   9.705746   3.544410
112  104  4     0.0000   0.021476   9.705746   3.544410
113  105  3    -2.0000   1.530069   2.374465   3.454607
114  105  4     0.0000   1.530069   2.374465   3.454607
115  106  3    -2.0000   1.503553   7.038652   3.611822
116  106  4     0.0000   1.503553   7.038652   3.611822
117  107  3    -2.0000   4.021383   2.195412   3.738415
118  107  4     0.0000   4.021383   2.195412   3.738415
119  108  3    -2.0000   4.152697   7.199428   3.542366
120  108  4     0.0000   4.152697   7.199428   3.542366
121  109  3    -2.0000   6.705063   2.276640   3.606805
122  109  4     0.0000   6.705063   2.276640   3.606805
123  110  3    -2.0000   6.941742   7.365978   3.737647
124  110  4     0.0000   6.941742   7.365978   3.737647
125  111  3    -2.0000   9.388075   2.172773   3.698401
126  111  4     0.0000   9.388075   2.172773   3.698401
127  112  3    -2.0000   9.463275   6.952720   3.623611
128  112  4     0.0000   9.463275   6.952720   3.623611
129  113  3    -2.0000   10.866296   4.722968   10.485720
130  113  4     0.0000   10.866296   4.722968   10.485720
131  114  3    -2.0000   10.687359   9.781835   10.545274
132  114  4     0.0000   10.687359   9.781835   10.545274
133  115  3    -2.0000   2.583342   4.789590   10.409560
134  115  4     0.0000   2.583342   4.789590   10.409560
135  116  3    -2.0000   2.725262   9.712027   10.368400
136  116  4     0.0000   2.725262   9.712027   10.368400
137  117  3    -2.0000   5.304178   4.770350   10.372205
138  117  4     0.0000   5.304178   4.770350   10.372205
139  118  3    -2.0000   5.411756   9.804755   10.283595
140  118  4     0.0000   5.411756   9.804755   10.283595
141  119  3    -2.0000   8.003264   5.121360   10.346362
142  119  4     0.0000   8.003264   5.121360   10.346362
143  120  3    -2.0000   7.951647   9.694918   10.486820
144  120  4     0.0000   7.951647   9.694918   10.486820
145  121  3    -2.0000   1.195839   2.389068   10.480307
146  121  4     0.0000   1.195839   2.389068   10.480307
147  122  3    -2.0000   1.449075   7.517421   10.473402
148  122  4     0.0000   1.449075   7.517421   10.473402
149  123  3    -2.0000   3.768954   2.394334   10.205510
150  123  4     0.0000   3.768954   2.394334   10.205510
151  124  3    -2.0000   4.140260   7.304048   10.359458
152  124  4     0.0000   4.140260   7.304048   10.359458
153  125  3    -2.0000   6.829517   2.106098   10.393276
154  125  4     0.0000   6.829517   2.106098   10.393276
155  126  3    -2.0000   6.855944   7.303110   10.346698
156  126  4     0.0000   6.855944   7.303110   10.346698
157  127  3    -2.0000   9.476305   2.147403   10.520753
158  127  4     0.0000   9.476305   2.147403   10.520753
159  128  3    -2.0000   9.423959   7.278874   10.447462
160  128  4     0.0000   9.423959   7.278874   10.447462
161  129  3    -2.0000   1.150295   0.620191   8.387199
162  129  4     0.0000   1.150295   0.620191   8.387199
163  130  3    -2.0000   1.299559   5.406842   8.248336
164  130  4     0.0000   1.299559   5.406842   8.248336
165  131  3    -2.0000   3.933709   0.299858   8.400073
166  131  4     0.0000   3.933709   0.299858   8.400073
167  132  3    -2.0000   4.220438   5.560017   8.370163
168  132  4     0.0000   4.220438   5.560017   8.370163
169  133  3    -2.0000   6.594933   0.815527   8.302218
170  133  4     0.0000   6.594933   0.815527   8.302218
171  134  3    -2.0000   6.654519   5.699735   8.292674
172  134  4     0.0000   6.654519   5.699735   8.292674
173  135  3    -2.0000   9.384916   0.703650   8.163441
174  135  4     0.0000   9.384916   0.703650   8.163441
175  136  3    -2.0000   9.518714   5.558953   8.282676
176  136  4     0.0000   9.518714   5.558953   8.282676
177  137  3    -2.0000   10.903187   3.062008   8.128126
178  137  4     0.0000   10.903187   3.062008   8.128126
179  138  3    -2.0000   10.745949   8.063087   8.315124
180  138  4     0.0000   10.745949   8.063087   8.315124
181  139  3    -2.0000   2.740904   3.125897   8.172035
182  139  4     0.0000   2.740904   3.125897   8.172035
183  140  3    -2.0000   2.711432   8.190269   8.360116
184  140  4     0.0000   2.711432   8.190269   8.360116
185  141  3    -2.0000   5.255401   3.107572   8.302542
186  141  4     0.0000   5.255401   3.107572   8.302542
187  142  3    -2.0000   5.298171   8.311228   8.352169
188  142  4     0.0000   5.298171   8.311228   8.352169
189  143  3    -2.0000   8.191913   2.960897   8.413866
190  143  4     0.0000   8.191913   2.960897   8.413866
191  144  3    -2.0000   8.169250   8.138888   8.400780
192  144  4     0.0000   8.169250   8.138888   8.400780
193  145  3    -2.0000   1.473880   0.534507   0.906107
194  145  4     0.0000   1.473880   0.534507   0.906107
195  146  3    -2.0000   1.292153   5.575553   1.151499
196  146  4     0.0000   1.292153   5.575553   1.151499
197  147  3    -2.0000   4.085220   0.362708   0.912098
198  147  4     0.0000   4.085220   0.362708   0.912098
199  148  3    -2.0000   4.012190   5.503090   0.941284
200  148  4     0.0000   4.012190   5.503090   0.941284
201  149  3    -2.0000   6.797026   0.445094   0.951101
202  149  4     0.0000   6.797026   0.445094   0.951101
203  150  3    -2.0000   6.669727   5.412431   1.176022
204  150  4     0.0000   6.669727   5.412431   1.176022
205  151  3    -2.0000   9.682297   0.740522   1.137262
206  151  4     0.0000   9.682297   0.740522   1.137262
207  152  3    -2.0000   9.498078   5.297384   1.132843
208  152  4     0.0000   9.498078   5.297384   1.132843
209  153  3    -2.0000   0.243851   3.066114   1.228661
210  153  4     0.0000   0.243851   3.066114   1.228661
211  154  3    -2.0000   0.014037   7.934935   0.991157
212  154  4     0.0000   0.014037   7.934935   0.991157
213  155  3    -2.0000   2.974116   2.911917   1.039305
214  155  4     0.0000   2.974116   2.911917   1.039305
215  156  3    -2.0000   2.748390   8.023651   1.038698
216  156  4     0.0000   2.748390   8.023651   1.038698
217  157  3    -2.0000   5.470777   2.832686   1.021875
218  157  4     0.0000   5.470777   2.832686   1.021875
219  158  3    -2.0000   5.500526   7.828678   1.126948
220  158  4     0.0000   5.500526   7.828678   1.126948
221  159  3    -2.0000   8.158521   2.996649   1.026009
222  159  4     0.0000   8.158521   2.996649   1.026009
223  160  3    -2.0000   8.194369   7.773985   0.967982
224  160  4     0.0000   8.194369   7.773985   0.967982
225  161  3    -2.0000   10.871790   1.257588   13.256874
226  161  4     0.0000   10.871790   1.257588   13.256874
227  162  3    -2.0000   10.779659   6.473006   12.794104
228  162  4     0.0000   10.779659   6.473006   12.794104
229  163  3    -2.0000   2.823506   1.349309   13.107992
230  163  4     0.0000   2.823506   1.349309   13.107992
231  164  3    -2.0000   3.000027   6.249034   13.041069
232  164  4     0.0000   3.000027   6.249034   13.041069
233  165  3    -2.0000   5.545020   1.548115   12.878117
234  165  4     0.0000   5.545020   1.548115   12.878117
235  166  3    -2.0000   5.506004   6.485472   12.944290
236  166  4     0.0000   5.506004   6.485472   12.944290
237  167  3    -2.0000   8.109369   1.233343   13.120664
238  167  4     0.0000   8.109369   1.233343   13.120664
239  168  3    -2.0000   8.200867   6.207386   13.060142
240  168  4     0.0000   8.200867   6.207386   13.060142
241  169  3    -2.0000   1.505725   3.915988   13.111869
242  169  4     0.0000   1.505725   3.915988   13.111869
243  170  3    -2.0000   1.440953   8.991587   12.976385
244  170  4     0.0000   1.440953   8.991587   12.976385
245  171  3    -2.0000   4.305590   3.942670   13.181487
246  171  4     0.0000   4.305590   3.942670   13.181487
247  172  3    -2.0000   4.255127   8.888373   13.041388
248  172  4     0.0000   4.255127   8.888373   13.041388
249  173  3    -2.0000   6.882343   3.967510   12.859605
250  173  4     0.0000   6.882343   3.967510   12.859605
251  174  3    -2.0000   6.724451   8.819984   12.941954
252  174  4     0.0000   6.724451   8.819984   12.941954
253  175  3    -2.0000   9.468909   3.778100   12.926133
254  175  4     0.0000   9.468909   3.778100   12.926133
255  176  3    -2.0000   9.469460   9.007359   12.926624
256  176  4     0.0000   9.469460   9.007359   12.926624
257  177  3    -2.0000   2.608508   1.529643   5.795726
258  177  4     0.0000   2.608508   1.529643   5.795726
259  178  3    -2.0000   2.902872   6.346601   5.842704
260  178  4     0.0000   2.902872   6.346601   5.842704
261  179  3    -2.0000   5.299279   1.276615   5.898093
262  179  4     0.0000   5.299279   1.276615   5.898093
263  180  3    -2.0000   5.528667   6.424163   5.778217
264  180  4     0.0000   5.528667   6.424163   5.778217
265  181  3    -2.0000   8.108375   1.443325   5.616339
266  181  4     0.0000   8.108375   1.443325   5.616339
267  182  3    -2.0000   8.229847   6.318306   5.837645
268  182  4     0.0000   8.229847   6.318306   5.837645
269  183  3    -2.0000   0.099102   1.289946   5.260240
270  183  4     0.0000   0.099102   1.289946   5.260240
271  184  3    -2.0000   0.224001   6.204025   5.902630
272  184  4     0.0000   0.224001   6.204025   5.902630
273  185  3    -2.0000   1.401445   3.992739   5.697394
274  185  4     0.0000   1.401445   3.992739   5.697394
275  186  3    -2.0000   1.758185   9.149710   5.821630
276  186  4     0.0000   1.758185   9.149710   5.821630
277  187  3    -2.0000   4.271751   3.911558   5.685256
278  187  4     0.0000   4.271751   3.911558   5.685256
279  188  3    -2.0000   4.318666   8.898340   5.704800
280  188  4     0.0000   4.318666   8.898340   5.704800
281  189  3    -2.0000   6.867633   3.672455   5.764695
282  189  4     0.0000   6.867633   3.672455   5.764695
283  190  3    -2.0000   6.851266   8.854132   5.888540
284  190  4     0.0000   6.851266   8.854132   5.888540
285  191  3    -2.0000   9.496773   3.745695   5.608940
286  191  4     0.0000   9.496773   3.745695   5.608940
287  192  3    -2.0000   9.548700   8.887148   5.756855
288  192  4     0.0000   9.548700   8.887148   5.756855

Bonds

1    1    97   98  
2    1    99   100 
3    1    101  102 
4    1    103  104 
5    1    105  106 
6    1    107  108 
7    1    109  110 
8    1    111  112 
9    1    113  114 
10   1    115  116 
11   1    117  118 
12   1    119  120 
13   1    121  122 
14   1    123  124 
15   1    125  126 
16   1    127  128 
17   1    129  130 
18   1    131  132 
19   1    133  134 
20   1    135  136 
21   1    137  138 
22   1    139  140 
23   1    141  142 
24   1    143  144 
25   1    145  146 
26   1    147  148 
27   1    149  150 
28   1    151  152 
29   1    153  154 
30   1    155  156 
31   1    157  158 
32   1    159  160 
33   1    161  162 
34   1    163  164 
35   1    165  166 
36   1    167  168 
37   1    169  170 
38   1    171  172 
39   1    173  174 
40   1    175  176 
41   1    177  178 
42   1    179  180 
43   1    181  182 
44   1    183  184 
45   1    185  186 
46   1    187  188 
47   1    189  190 
48   1    191  192 
49   1    193  194 
50   1    195  196 
51   1    197  198 
52   1    199  200 
53   1    201  202 
54   1    203  204 
55   1    205  206 
56   1    207  208 
57   1    209  210 
58   1    211  212 
59   1    213  214 
60   1    215  216 
61   1    217  218 
62   1    219  220 
63   1    221  222 
64   1    223  224 
65   1    225  226 
66   1    227  228 
67   1    229  230 
68   1    231  232 
69   1    233  234 
70   1    235  236 
71   1    237  238 
72   1    239  240 
73   1    241  242 
74   1    243  244 
75   1    245  246 
76   1    247  248 
77   1    249  250 
78   1    251  252 
79   1    253  254 
80   1    255  256 
81   1    257  258 
82   1    259  260 
83   1    261  262 
84   1    263  264 
85   1    265  266 
86   1    267  268 
87   1    269  270 
88   1    271  272 
89   1    273  274 
90   1    275  276 
91   1    277  278 
92   1    279  280 
93   1    281  282 
94   1    283  284 
95   1    285  286 
96   1    287  288 

