title

288   atoms
96   bonds

4   atom types
1   bond types


0.0 10.915736 xlo xhi
0.0 10.060858 ylo yhi
0.0 14.052717 zlo zhi

0.00000 0.00000 0.00000 xy xz yz 

Masses

1   6.94100 # Li
2  58.69340 # Ni
3  14.39910 # O core
4   1.59990 # O shell

Atoms

1    1    1     1.0000   2.833447   1.162474   2.499307
2    2    1     1.0000   2.708637   6.427256   2.492272
3    3    1     1.0000   5.526457   1.412906   2.327738
4    4    1     1.0000   5.241492   6.583637   2.256379
5    5    1     1.0000   8.191008   1.348099   2.382351
6    6    1     1.0000   7.801031   6.263039   2.245407
7    7    1     1.0000   10.699769   1.543554   2.476397
8    8    1     1.0000   10.877610   6.203705   2.448118
9    9    1     1.0000   1.397443   3.942222   2.326918
10   10   1     1.0000   1.312905   8.897140   2.484783
11   11   1     1.0000   4.122879   4.182190   2.137297
12   12   1     1.0000   4.242795   9.071539   2.291876
13   13   1     1.0000   6.905367   3.887139   2.506367
14   14   1     1.0000   7.087563   8.862700   2.321622
15   15   1     1.0000   9.590472   3.748415   2.445305
16   16   1     1.0000   9.723968   8.695307   2.345463
17   17   1     1.0000   1.558992   0.802707   11.723441
18   18   1     1.0000   1.456773   5.832538   11.897907
19   19   1     1.0000   4.108320   0.831517   11.466239
20   20   1     1.0000   4.017246   5.979413   11.501375
21   21   1     1.0000   7.076180   0.458286   11.791668
22   22   1     1.0000   6.815601   5.317831   11.410117
23   23   1     1.0000   9.605684   0.794060   11.796379
24   24   1     1.0000   9.296515   5.628211   11.834654
25   25   1     1.0000   0.155345   2.885099   11.816669
26   26   1     1.0000   0.217365   8.092772   11.885288
27   27   1     1.0000   2.925976   3.105298   11.612555
28   28   1     1.0000   2.607578   8.241856   11.792872
29   29   1     1.0000   5.547633   2.892759   12.020246
30   30   1     1.0000   5.529420   8.249501   11.538785
31   31   1     1.0000   8.207630   2.852795   12.019861
32   32   1     1.0000   8.192573   8.120897   11.349159
33   33   1     1.0000   10.898015   4.488548   7.122608
34   34   1     1.0000   0.309653   9.468689   7.287918
35   35   1     1.0000   2.582883   4.922599   6.642301
36   36   1     1.0000   2.592802   9.901520   6.865672
37   37   1     1.0000   5.410481   4.800110   6.820628
38   38   1     1.0000   5.461554   9.818915   7.222690
39   39   1     1.0000   8.192018   4.604476   6.954003
40   40   1     1.0000   8.380717   9.585167   6.992874
41   41   1     1.0000   1.570247   2.305788   7.254430
42   42   1     1.0000   1.336940   7.016882   7.162100
43   43   1     1.0000   4.046338   2.410788   6.915436
44   44   1     1.0000   3.987877   7.357290   7.057694
45   45   1     1.0000   6.987571   2.248156   6.733630
46   46   1     1.0000   6.740501   7.123075   7.070750
47   47   1     1.0000   9.664410   1.998008   6.953858
48   48   1     1.0000   9.569169   7.317089   6.943636
49   49   2     3.0000   10.774199   4.709957   0.199622
50   50   2     3.0000   10.859820   9.622671   0.309825
51   51   2     3.0000   2.884761   4.624058   0.003455
52   52   2     3.0000   2.732974   9.675941   14.039959
53   53   2     3.0000   5.579992   4.830126   13.953755
54   54   2     3.0000   5.314980   9.633865   13.896456
55   55   2     3.0000   8.202994   4.780213   0.103977
56   56   2     3.0000   7.989607   9.772674   0.129271
57   57   2     3.0000   1.374197   2.208293   0.102818
58   58   2     3.0000   1.308527   7.248453   0.176852
59   59   2     3.0000   4.002844   2.107318   0.033350
60   60   2     3.0000   4.079226   7.302072   13.731213
61   61   2     3.0000   6.730233   2.114784   0.146176
62   62   2     3.0000   6.711227   7.253935   13.730377
63   63   2     3.0000   9.614007   2.065393   0.097004
64   64   2     3.0000   9.579388   7.320766   14.006704
65   65   2     3.0000   1.406859   0.561176   4.859239
66   66   2     3.0000   1.336452   5.447581   4.781345
67   67   2     3.0000   4.277119   0.417488   4.628715
68   68   2     3.0000   4.147919   5.666159   4.408671
69   69   2     3.0000   6.869528   0.425059   4.746360
70   70   2     3.0000   6.986873   5.638276   4.575176
71   71   2     3.0000   9.859039   0.319424   4.845989
72   72   2     3.0000   9.505788   5.456537   4.800541
73   73   2     3.0000   2.786247   2.872003   4.734479
74   74   2     3.0000   2.614834   7.964422   4.560091
75   75   2     3.0000   5.581196   3.237365   4.466373
76   76   2     3.0000   5.498549   8.205210   4.651095
77   77   2     3.0000   8.369285   2.931963   4.801549
78   78   2     3.0000   8.138522   7.921427   4.658838
79   79   2     3.0000   0.127733   2.954725   4.778136
80   80   2     3.0000   10.807379   7.879129   4.712612
81   81   2     3.0000   0.049443   1.254444   9.511133
82   82   2     3.0000   0.008867   6.375730   9.534255
83   83   2     3.0000   2.785446   1.475446   9.305889
84   84   2     3.0000   2.744875   6.455336   9.455372
85   85   2     3.0000   5.326422   1.442266   9.318585
86   86   2     3.0000   5.419119   6.535090   9.117478
87   87   2     3.0000   8.019988   1.403516   9.397895
88   88   2     3.0000   8.202350   6.255325   9.268377
89   89   2     3.0000   1.205455   3.837034   9.525186
90   90   2     3.0000   1.392719   8.850896   9.535218
91   91   2     3.0000   3.956724   3.903775   9.303988
92   92   2     3.0000   3.980652   9.089614   9.233175
93   93   2     3.0000   6.677875   3.932133   9.271814
94   94   2     3.0000   6.882690   8.999179   9.177264
95   95   2     3.0000   9.504231   3.789081   9.450820
96   96   2     3.0000   9.433174   8.879614   9.142385
97   97   3    -2.0000   2.790069   4.515793   3.861598
98   97   4     0.0000   2.790069   4.515793   3.861598
99   98   3    -2.0000   2.750965   9.760481   3.735785
100  98   4     0.0000   2.750965   9.760481   3.735785
101  99   3    -2.0000   5.401140   4.927317   3.321685
102  99   4     0.0000   5.401140   4.927317   3.321685
103  100  3    -2.0000   5.703299   9.948476   3.470638
104  100  4     0.0000   5.703299   9.948476   3.470638
105  101  3    -2.0000   8.261337   4.645156   3.634015
106  101  4     0.0000   8.261337   4.645156   3.634015
107  102  3    -2.0000   8.341268   9.636009   3.990427
108  102  4     0.0000   8.341268   9.636009   3.990427
109  103  3    -2.0000   10.871822   4.716460   3.686439
110  103  4     0.0000   10.871822   4.716460   3.686439
111  104  3    -2.0000   0.047303   9.263430   3.566090
112  104  4     0.0000   0.047303   9.263430   3.566090
113  105  3    -2.0000   1.455889   2.154639   3.778491
114  105  4     0.0000   1.455889   2.154639   3.778491
115  106  3    -2.0000   1.230960   7.199239   3.483560
116  106  4     0.0000   1.230960   7.199239   3.483560
117  107  3    -2.0000   4.273612   2.146668   3.640959
118  107  4     0.0000   4.273612   2.146668   3.640959
119  108  3    -2.0000   4.154201   7.479074   3.481867
120  108  4     0.0000   4.154201   7.479074   3.481867
121  109  3    -2.0000   7.124403   2.084421   3.706331
122  109  4     0.0000   7.124403   2.084421   3.706331
123  110  3    -2.0000   6.812291   6.988219   3.506305
124  110  4     0.0000   6.812291   6.988219   3.506305
125  111  3    -2.0000   9.735841   2.137192   3.847532
126  111  4     0.0000   9.735841   2.137192   3.847532
127  112  3    -2.0000   9.412682   6.963434   3.715255
128  112  4     0.0000   9.412682   6.963434   3.715255
129  113  3    -2.0000   10.853630   4.571352   10.624850
130  113  4     0.0000   10.853630   4.571352   10.624850
131  114  3    -2.0000   0.114351   9.621917   10.583976
132  114  4     0.0000   0.114351   9.621917   10.583976
133  115  3    -2.0000   2.673971   4.772988   10.291890
134  115  4     0.0000   2.673971   4.772988   10.291890
135  116  3    -2.0000   2.829806   0.021913   10.359514
136  116  4     0.0000   2.829806   0.021913   10.359514
137  117  3    -2.0000   5.079180   4.858778   10.219974
138  117  4     0.0000   5.079180   4.858778   10.219974
139  118  3    -2.0000   5.420923   9.781986   10.142557
140  118  4     0.0000   5.420923   9.781986   10.142557
141  119  3    -2.0000   8.048040   4.840364   10.307942
142  119  4     0.0000   8.048040   4.840364   10.307942
143  120  3    -2.0000   8.108205   9.940074   10.245468
144  120  4     0.0000   8.108205   9.940074   10.245468
145  121  3    -2.0000   1.360017   2.367326   10.465453
146  121  4     0.0000   1.360017   2.367326   10.465453
147  122  3    -2.0000   1.408851   7.270460   10.642126
148  122  4     0.0000   1.408851   7.270460   10.642126
149  123  3    -2.0000   4.127443   2.210828   10.390395
150  123  4     0.0000   4.127443   2.210828   10.390395
151  124  3    -2.0000   4.053184   7.524623   10.259468
152  124  4     0.0000   4.053184   7.524623   10.259468
153  125  3    -2.0000   6.906266   2.183662   10.600161
154  125  4     0.0000   6.906266   2.183662   10.600161
155  126  3    -2.0000   6.592989   7.198838   10.339474
156  126  4     0.0000   6.592989   7.198838   10.339474
157  127  3    -2.0000   9.463035   2.314738   10.403291
158  127  4     0.0000   9.463035   2.314738   10.403291
159  128  3    -2.0000   9.314577   6.998304   10.343007
160  128  4     0.0000   9.314577   6.998304   10.343007
161  129  3    -2.0000   1.354336   0.346415   8.371570
162  129  4     0.0000   1.354336   0.346415   8.371570
163  130  3    -2.0000   1.457875   5.466432   8.385717
164  130  4     0.0000   1.457875   5.466432   8.385717
165  131  3    -2.0000   3.926742   0.370301   8.130619
166  131  4     0.0000   3.926742   0.370301   8.130619
167  132  3    -2.0000   4.123948   5.771641   8.015837
168  132  4     0.0000   4.123948   5.771641   8.015837
169  133  3    -2.0000   6.870413   0.541925   8.115587
170  133  4     0.0000   6.870413   0.541925   8.115587
171  134  3    -2.0000   6.674449   5.580404   8.200649
172  134  4     0.0000   6.674449   5.580404   8.200649
173  135  3    -2.0000   9.429427   0.573466   8.344660
174  135  4     0.0000   9.429427   0.573466   8.344660
175  136  3    -2.0000   9.493050   5.462019   8.372523
176  136  4     0.0000   9.493050   5.462019   8.372523
177  137  3    -2.0000   10.771734   2.937980   8.533840
178  137  4     0.0000   10.771734   2.937980   8.533840
179  138  3    -2.0000   0.078824   8.045212   8.453571
180  138  4     0.0000   0.078824   8.045212   8.453571
181  139  3    -2.0000   2.738333   2.901594   8.448169
182  139  4     0.0000   2.738333   2.901594   8.448169
183  140  3    -2.0000   2.545914   8.116752   8.411695
184  140  4     0.0000   2.545914   8.116752   8.411695
185  141  3    -2.0000   5.373345   2.966491   8.206378
186  141  4     0.0000   5.373345   2.966491   8.206378
187  142  3    -2.0000   5.419665   8.286069   8.147520
188  142  4     0.0000   5.419665   8.286069   8.147520
189  143  3    -2.0000   8.129719   2.997981   8.465616
190  143  4     0.0000   8.129719   2.997981   8.465616
191  144  3    -2.0000   8.217517   7.748020   8.241849
192  144  4     0.0000   8.217517   7.748020   8.241849
193  145  3    -2.0000   1.253832   0.641544   1.173426
194  145  4     0.0000   1.253832   0.641544   1.173426
195  146  3    -2.0000   1.450610   5.462998   0.915299
196  146  4     0.0000   1.450610   5.462998   0.915299
197  147  3    -2.0000   3.900398   0.362368   1.083107
198  147  4     0.0000   3.900398   0.362368   1.083107
199  148  3    -2.0000   4.368704   5.715212   0.829741
200  148  4     0.0000   4.368704   5.715212   0.829741
201  149  3    -2.0000   6.633643   0.371457   1.075442
202  149  4     0.0000   6.633643   0.371457   1.075442
203  150  3    -2.0000   6.814431   5.723845   0.812406
204  150  4     0.0000   6.814431   5.723845   0.812406
205  151  3    -2.0000   9.428259   0.451852   1.330959
206  151  4     0.0000   9.428259   0.451852   1.330959
207  152  3    -2.0000   9.424339   5.791863   1.144197
208  152  4     0.0000   9.424339   5.791863   1.144197
209  153  3    -2.0000   0.047690   3.166908   1.155828
210  153  4     0.0000   0.047690   3.166908   1.155828
211  154  3    -2.0000   10.652492   7.878330   1.195851
212  154  4     0.0000   10.652492   7.878330   1.195851
213  155  3    -2.0000   2.982478   3.195867   1.199507
214  155  4     0.0000   2.982478   3.195867   1.199507
215  156  3    -2.0000   2.488621   8.026890   1.137740
216  156  4     0.0000   2.488621   8.026890   1.137740
217  157  3    -2.0000   5.486272   3.165874   0.946737
218  157  4     0.0000   5.486272   3.165874   0.946737
219  158  3    -2.0000   5.406454   7.985825   0.819979
220  158  4     0.0000   5.406454   7.985825   0.819979
221  159  3    -2.0000   7.842943   3.161143   1.132127
222  159  4     0.0000   7.842943   3.161143   1.132127
223  160  3    -2.0000   8.372302   8.148423   1.354769
224  160  4     0.0000   8.372302   8.148423   1.354769
225  161  3    -2.0000   0.063602   1.426681   12.916751
226  161  4     0.0000   0.063602   1.426681   12.916751
227  162  3    -2.0000   0.084994   6.044293   13.002992
228  162  4     0.0000   0.084994   6.044293   13.002992
229  163  3    -2.0000   2.635905   1.200530   13.078792
230  163  4     0.0000   2.635905   1.200530   13.078792
231  164  3    -2.0000   2.832295   6.051996   13.060164
232  164  4     0.0000   2.832295   6.051996   13.060164
233  165  3    -2.0000   5.396258   1.333932   13.117434
234  165  4     0.0000   5.396258   1.333932   13.117434
235  166  3    -2.0000   5.491745   6.395648   12.517474
236  166  4     0.0000   5.491745   6.395648   12.517474
237  167  3    -2.0000   8.012821   1.476407   13.094114
238  167  4     0.0000   8.012821   1.476407   13.094114
239  168  3    -2.0000   8.218430   6.539304   12.947700
240  168  4     0.0000   8.218430   6.539304   12.947700
241  169  3    -2.0000   1.476012   3.670446   13.081674
242  169  4     0.0000   1.476012   3.670446   13.081674
243  170  3    -2.0000   1.333318   8.895075   13.295458
244  170  4     0.0000   1.333318   8.895075   13.295458
245  171  3    -2.0000   4.141584   3.847698   13.170978
246  171  4     0.0000   4.141584   3.847698   13.170978
247  172  3    -2.0000   3.936808   8.924206   12.653642
248  172  4     0.0000   3.936808   8.924206   12.653642
249  173  3    -2.0000   6.807744   4.049591   12.810102
250  173  4     0.0000   6.807744   4.049591   12.810102
251  174  3    -2.0000   6.979148   8.822093   12.761848
252  174  4     0.0000   6.979148   8.822093   12.761848
253  175  3    -2.0000   9.516236   3.927297   13.268079
254  175  4     0.0000   9.516236   3.927297   13.268079
255  176  3    -2.0000   9.618801   8.977310   13.174991
256  176  4     0.0000   9.618801   8.977310   13.174991
257  177  3    -2.0000   3.002106   1.283033   5.772953
258  177  4     0.0000   3.002106   1.283033   5.772953
259  178  3    -2.0000   2.836371   6.419592   5.542330
260  178  4     0.0000   2.836371   6.419592   5.542330
261  179  3    -2.0000   5.709055   1.301953   5.579774
262  179  4     0.0000   5.709055   1.301953   5.579774
263  180  3    -2.0000   5.517472   6.385240   5.464104
264  180  4     0.0000   5.517472   6.385240   5.464104
265  181  3    -2.0000   8.324578   1.144165   5.735992
266  181  4     0.0000   8.324578   1.144165   5.735992
267  182  3    -2.0000   8.229770   6.496049   5.796343
268  182  4     0.0000   8.229770   6.496049   5.796343
269  183  3    -2.0000   0.225135   1.438414   5.855537
270  183  4     0.0000   0.225135   1.438414   5.855537
271  184  3    -2.0000   0.090697   6.290798   5.791094
272  184  4     0.0000   0.090697   6.290798   5.791094
273  185  3    -2.0000   1.409625   3.669843   5.941196
274  185  4     0.0000   1.409625   3.669843   5.941196
275  186  3    -2.0000   1.443030   8.602379   5.866665
276  186  4     0.0000   1.443030   8.602379   5.866665
277  187  3    -2.0000   4.064687   3.771011   5.587601
278  187  4     0.0000   4.064687   3.771011   5.587601
279  188  3    -2.0000   4.299408   9.078748   5.745661
280  188  4     0.0000   4.299408   9.078748   5.745661
281  189  3    -2.0000   6.975921   3.987823   5.551551
282  189  4     0.0000   6.975921   3.987823   5.551551
283  190  3    -2.0000   6.912507   8.888272   5.635593
284  190  4     0.0000   6.912507   8.888272   5.635593
285  191  3    -2.0000   9.711901   3.848580   5.829160
286  191  4     0.0000   9.711901   3.848580   5.829160
287  192  3    -2.0000   9.617347   8.598223   5.785956
288  192  4     0.0000   9.617347   8.598223   5.785956

Bonds

1    1    97   98  
2    1    99   100 
3    1    101  102 
4    1    103  104 
5    1    105  106 
6    1    107  108 
7    1    109  110 
8    1    111  112 
9    1    113  114 
10   1    115  116 
11   1    117  118 
12   1    119  120 
13   1    121  122 
14   1    123  124 
15   1    125  126 
16   1    127  128 
17   1    129  130 
18   1    131  132 
19   1    133  134 
20   1    135  136 
21   1    137  138 
22   1    139  140 
23   1    141  142 
24   1    143  144 
25   1    145  146 
26   1    147  148 
27   1    149  150 
28   1    151  152 
29   1    153  154 
30   1    155  156 
31   1    157  158 
32   1    159  160 
33   1    161  162 
34   1    163  164 
35   1    165  166 
36   1    167  168 
37   1    169  170 
38   1    171  172 
39   1    173  174 
40   1    175  176 
41   1    177  178 
42   1    179  180 
43   1    181  182 
44   1    183  184 
45   1    185  186 
46   1    187  188 
47   1    189  190 
48   1    191  192 
49   1    193  194 
50   1    195  196 
51   1    197  198 
52   1    199  200 
53   1    201  202 
54   1    203  204 
55   1    205  206 
56   1    207  208 
57   1    209  210 
58   1    211  212 
59   1    213  214 
60   1    215  216 
61   1    217  218 
62   1    219  220 
63   1    221  222 
64   1    223  224 
65   1    225  226 
66   1    227  228 
67   1    229  230 
68   1    231  232 
69   1    233  234 
70   1    235  236 
71   1    237  238 
72   1    239  240 
73   1    241  242 
74   1    243  244 
75   1    245  246 
76   1    247  248 
77   1    249  250 
78   1    251  252 
79   1    253  254 
80   1    255  256 
81   1    257  258 
82   1    259  260 
83   1    261  262 
84   1    263  264 
85   1    265  266 
86   1    267  268 
87   1    269  270 
88   1    271  272 
89   1    273  274 
90   1    275  276 
91   1    277  278 
92   1    279  280 
93   1    281  282 
94   1    283  284 
95   1    285  286 
96   1    287  288 

