title

288   atoms
96   bonds

4   atom types
1   bond types


0.0 10.915736 xlo xhi
0.0 10.060858 ylo yhi
0.0 14.052717 zlo zhi

0.00000 0.00000 0.00000 xy xz yz 

Masses

1   6.94100 # Li
2  58.69340 # Ni
3  14.39910 # O core
4   1.59990 # O shell

Atoms

1    1    1     1.0000   2.737359   1.528833   2.361318
2    2    1     1.0000   2.920405   6.701549   1.853321
3    3    1     1.0000   5.357164   1.389546   2.421648
4    4    1     1.0000   5.576911   6.467978   2.010597
5    5    1     1.0000   8.028545   1.423232   2.343135
6    6    1     1.0000   8.544066   6.467680   2.264252
7    7    1     1.0000   0.034722   1.364931   2.404963
8    8    1     1.0000   0.032574   6.545183   2.473401
9    9    1     1.0000   1.564444   3.926107   2.358320
10   10   1     1.0000   1.425577   9.007180   2.496066
11   11   1     1.0000   4.286684   3.892148   2.196361
12   12   1     1.0000   4.225263   8.711625   2.229515
13   13   1     1.0000   6.926078   3.926861   2.123397
14   14   1     1.0000   6.514808   8.921933   2.332996
15   15   1     1.0000   9.816771   3.739149   2.479277
16   16   1     1.0000   9.404893   9.041513   2.556631
17   17   1     1.0000   1.192719   0.439031   11.812141
18   18   1     1.0000   1.006115   5.506179   11.694929
19   19   1     1.0000   4.071319   0.379519   11.868397
20   20   1     1.0000   4.094265   5.599574   11.631675
21   21   1     1.0000   6.739079   0.709292   11.585833
22   22   1     1.0000   6.623432   5.777604   11.669366
23   23   1     1.0000   9.601435   0.430959   11.780794
24   24   1     1.0000   9.547458   5.429276   11.631186
25   25   1     1.0000   10.820281   3.198408   11.911463
26   26   1     1.0000   10.723574   8.326814   11.886869
27   27   1     1.0000   2.483661   3.361096   11.675559
28   28   1     1.0000   2.620090   7.979417   11.765557
29   29   1     1.0000   5.382991   3.108642   11.626952
30   30   1     1.0000   5.139395   8.399397   11.545336
31   31   1     1.0000   8.056014   3.246258   11.602462
32   32   1     1.0000   8.280438   8.203583   11.796718
33   33   1     1.0000   10.893799   4.656046   7.134333
34   34   1     1.0000   10.699634   9.488108   7.082014
35   35   1     1.0000   2.939613   4.588510   7.253976
36   36   1     1.0000   2.831149   9.536637   7.139807
37   37   1     1.0000   5.362596   4.663118   6.919676
38   38   1     1.0000   5.506561   9.862282   6.733981
39   39   1     1.0000   8.133790   4.635274   7.069913
40   40   1     1.0000   8.138169   9.619761   6.877120
41   41   1     1.0000   1.206666   2.161294   7.003634
42   42   1     1.0000   1.313950   7.225881   6.996360
43   43   1     1.0000   4.061416   2.190067   7.095020
44   44   1     1.0000   4.038101   7.318481   6.837803
45   45   1     1.0000   6.882493   2.253035   7.130163
46   46   1     1.0000   6.927104   7.300801   6.861334
47   47   1     1.0000   9.588616   2.019833   7.333129
48   48   1     1.0000   9.522799   6.703378   7.084165
49   49   2     3.0000   0.039112   4.638437   0.099589
50   50   2     3.0000   10.734097   9.780266   0.303704
51   51   2     3.0000   2.664978   4.604632   14.023542
52   52   2     3.0000   2.537927   9.740097   0.169396
53   53   2     3.0000   5.424023   4.843137   13.825065
54   54   2     3.0000   5.335366   9.746212   0.011576
55   55   2     3.0000   8.192819   4.923274   0.032285
56   56   2     3.0000   8.024855   9.656071   0.135018
57   57   2     3.0000   1.299079   2.086584   0.108642
58   58   2     3.0000   1.449025   7.201565   0.110649
59   59   2     3.0000   4.199431   2.122524   0.118005
60   60   2     3.0000   4.101827   7.109865   13.627139
61   61   2     3.0000   6.872236   2.236069   13.995440
62   62   2     3.0000   6.816630   7.281976   13.977589
63   63   2     3.0000   9.431568   2.107571   0.068142
64   64   2     3.0000   9.541469   7.207268   0.311401
65   65   2     3.0000   1.441501   0.318922   4.961956
66   66   2     3.0000   1.437205   5.595282   4.689644
67   67   2     3.0000   4.218225   0.511600   4.727843
68   68   2     3.0000   4.101863   5.667152   4.497249
69   69   2     3.0000   6.998409   0.578647   4.639279
70   70   2     3.0000   6.895379   5.526803   4.303328
71   71   2     3.0000   9.525240   0.388638   4.786367
72   72   2     3.0000   9.578885   5.371320   4.741964
73   73   2     3.0000   2.817400   2.876447   4.677519
74   74   2     3.0000   2.768917   8.171813   4.593900
75   75   2     3.0000   5.588181   3.203235   4.405872
76   76   2     3.0000   5.463713   7.942002   4.533157
77   77   2     3.0000   8.338950   3.046892   4.505088
78   78   2     3.0000   8.169765   7.979732   4.661841
79   79   2     3.0000   0.107137   2.922337   4.807680
80   80   2     3.0000   0.017642   7.934084   4.825560
81   81   2     3.0000   10.895033   1.410821   9.444630
82   82   2     3.0000   10.909711   6.389489   9.376335
83   83   2     3.0000   2.670358   1.309868   9.306454
84   84   2     3.0000   2.673780   6.417590   9.312429
85   85   2     3.0000   5.572100   1.524481   9.358499
86   86   2     3.0000   5.427045   6.539191   9.127736
87   87   2     3.0000   8.334658   1.344668   9.403500
88   88   2     3.0000   8.178910   6.222252   9.214515
89   89   2     3.0000   1.370718   3.989473   9.318061
90   90   2     3.0000   1.367301   8.982698   9.453004
91   91   2     3.0000   4.229247   3.965003   9.359860
92   92   2     3.0000   4.048407   8.946433   9.237903
93   93   2     3.0000   6.693974   4.020019   9.534182
94   94   2     3.0000   6.757083   8.901791   9.182274
95   95   2     3.0000   9.583438   3.818863   9.523498
96   96   2     3.0000   9.477813   8.792654   9.390208
97   97   3    -2.0000   2.504470   4.828907   3.513557
98   97   4     0.0000   2.504470   4.828907   3.513557
99   98   3    -2.0000   2.781921   9.880684   3.808783
100  98   4     0.0000   2.781921   9.880684   3.808783
101  99   3    -2.0000   5.363920   4.875406   3.398781
102  99   4     0.0000   5.363920   4.875406   3.398781
103  100  3    -2.0000   5.338881   9.610385   3.734500
104  100  4     0.0000   5.338881   9.610385   3.734500
105  101  3    -2.0000   8.366628   4.659456   3.405087
106  101  4     0.0000   8.366628   4.659456   3.405087
107  102  3    -2.0000   8.230451   9.724621   3.537164
108  102  4     0.0000   8.230451   9.724621   3.537164
109  103  3    -2.0000   0.310314   4.306881   3.661798
110  103  4     0.0000   0.310314   4.306881   3.661798
111  104  3    -2.0000   0.055110   9.711894   3.971774
112  104  4     0.0000   0.055110   9.711894   3.971774
113  105  3    -2.0000   1.484366   2.019953   3.634204
114  105  4     0.0000   1.484366   2.019953   3.634204
115  106  3    -2.0000   1.216734   7.295791   3.719661
116  106  4     0.0000   1.216734   7.295791   3.719661
117  107  3    -2.0000   4.029535   1.758440   3.582766
118  107  4     0.0000   4.029535   1.758440   3.582766
119  108  3    -2.0000   3.982943   7.259154   3.368864
120  108  4     0.0000   3.982943   7.259154   3.368864
121  109  3    -2.0000   6.968380   2.319411   3.474268
122  109  4     0.0000   6.968380   2.319411   3.474268
123  110  3    -2.0000   6.720123   7.587101   3.506440
124  110  4     0.0000   6.720123   7.587101   3.506440
125  111  3    -2.0000   9.758168   2.056966   3.694578
126  111  4     0.0000   9.758168   2.056966   3.694578
127  112  3    -2.0000   9.474656   7.036539   3.658050
128  112  4     0.0000   9.474656   7.036539   3.658050
129  113  3    -2.0000   10.786540   4.713903   10.504207
130  113  4     0.0000   10.786540   4.713903   10.504207
131  114  3    -2.0000   10.895861   9.688782   10.502896
132  114  4     0.0000   10.895861   9.688782   10.502896
133  115  3    -2.0000   2.791930   4.829939   10.500951
134  115  4     0.0000   2.791930   4.829939   10.500951
135  116  3    -2.0000   2.637361   9.542805   10.485273
136  116  4     0.0000   2.637361   9.542805   10.485273
137  117  3    -2.0000   5.529398   5.066243   10.374036
138  117  4     0.0000   5.529398   5.066243   10.374036
139  118  3    -2.0000   5.193087   9.867690   10.391230
140  118  4     0.0000   5.193087   9.867690   10.391230
141  119  3    -2.0000   8.135113   4.711259   10.400207
142  119  4     0.0000   8.135113   4.711259   10.400207
143  120  3    -2.0000   8.180280   9.619339   10.430549
144  120  4     0.0000   8.180280   9.619339   10.430549
145  121  3    -2.0000   1.270656   2.377244   10.452426
146  121  4     0.0000   1.270656   2.377244   10.452426
147  122  3    -2.0000   1.399460   7.281263   10.546702
148  122  4     0.0000   1.399460   7.281263   10.546702
149  123  3    -2.0000   4.163126   2.146680   10.386286
150  123  4     0.0000   4.163126   2.146680   10.386286
151  124  3    -2.0000   4.017035   7.379604   10.176259
152  124  4     0.0000   4.017035   7.379604   10.176259
153  125  3    -2.0000   6.786279   2.288494   10.434191
154  125  4     0.0000   6.786279   2.288494   10.434191
155  126  3    -2.0000   7.025321   7.070970   10.279830
156  126  4     0.0000   7.025321   7.070970   10.279830
157  127  3    -2.0000   9.454211   1.971263   10.722347
158  127  4     0.0000   9.454211   1.971263   10.722347
159  128  3    -2.0000   9.382178   7.035782   10.484482
160  128  4     0.0000   9.382178   7.035782   10.484482
161  129  3    -2.0000   1.316734   0.397352   8.399837
162  129  4     0.0000   1.316734   0.397352   8.399837
163  130  3    -2.0000   1.358358   5.662217   8.448273
164  130  4     0.0000   1.358358   5.662217   8.448273
165  131  3    -2.0000   4.136129   0.521768   8.311825
166  131  4     0.0000   4.136129   0.521768   8.311825
167  132  3    -2.0000   3.964713   5.769107   8.164994
168  132  4     0.0000   3.964713   5.769107   8.164994
169  133  3    -2.0000   7.003761   0.806648   8.261591
170  133  4     0.0000   7.003761   0.806648   8.261591
171  134  3    -2.0000   6.940452   5.601333   8.104638
172  134  4     0.0000   6.940452   5.601333   8.104638
173  135  3    -2.0000   9.724724   0.529659   8.348373
174  135  4     0.0000   9.724724   0.529659   8.348373
175  136  3    -2.0000   9.519955   5.449162   8.335592
176  136  4     0.0000   9.519955   5.449162   8.335592
177  137  3    -2.0000   0.040614   3.099132   8.261255
178  137  4     0.0000   0.040614   3.099132   8.261255
179  138  3    -2.0000   0.133614   8.075304   8.417381
180  138  4     0.0000   0.133614   8.075304   8.417381
181  139  3    -2.0000   2.613337   3.412482   8.289496
182  139  4     0.0000   2.613337   3.412482   8.289496
183  140  3    -2.0000   2.512631   8.189528   8.353569
184  140  4     0.0000   2.512631   8.189528   8.353569
185  141  3    -2.0000   5.451558   3.135997   8.355821
186  141  4     0.0000   5.451558   3.135997   8.355821
187  142  3    -2.0000   5.218057   8.092706   8.145738
188  142  4     0.0000   5.218057   8.092706   8.145738
189  143  3    -2.0000   8.338325   2.986576   8.412877
190  143  4     0.0000   8.338325   2.986576   8.412877
191  144  3    -2.0000   8.167375   7.792243   8.205126
192  144  4     0.0000   8.167375   7.792243   8.205126
193  145  3    -2.0000   1.064359   0.476669   1.174600
194  145  4     0.0000   1.064359   0.476669   1.174600
195  146  3    -2.0000   1.483493   5.438764   1.058631
196  146  4     0.0000   1.483493   5.438764   1.058631
197  147  3    -2.0000   4.058772   0.521715   1.178045
198  147  4     0.0000   4.058772   0.521715   1.178045
199  148  3    -2.0000   3.848431   5.479794   0.878737
200  148  4     0.0000   3.848431   5.479794   0.878737
201  149  3    -2.0000   6.495835   0.334199   1.173368
202  149  4     0.0000   6.495835   0.334199   1.173368
203  150  3    -2.0000   6.768142   5.801274   1.024418
204  150  4     0.0000   6.768142   5.801274   1.024418
205  151  3    -2.0000   9.330812   0.480177   1.154762
206  151  4     0.0000   9.330812   0.480177   1.154762
207  152  3    -2.0000   9.740970   5.551362   1.135159
208  152  4     0.0000   9.740970   5.551362   1.135159
209  153  3    -2.0000   0.132061   2.836021   1.159912
210  153  4     0.0000   0.132061   2.836021   1.159912
211  154  3    -2.0000   0.032573   7.996571   1.331059
212  154  4     0.0000   0.032573   7.996571   1.331059
213  155  3    -2.0000   2.837384   3.103919   1.169720
214  155  4     0.0000   2.837384   3.103919   1.169720
215  156  3    -2.0000   2.777668   8.362887   1.163484
216  156  4     0.0000   2.777668   8.362887   1.163484
217  157  3    -2.0000   5.433565   2.783848   1.041974
218  157  4     0.0000   5.433565   2.783848   1.041974
219  158  3    -2.0000   5.414887   7.961509   0.799216
220  158  4     0.0000   5.414887   7.961509   0.799216
221  159  3    -2.0000   8.359961   3.046078   1.005803
222  159  4     0.0000   8.359961   3.046078   1.005803
223  160  3    -2.0000   7.974858   7.955908   0.845562
224  160  4     0.0000   7.974858   7.955908   0.845562
225  161  3    -2.0000   10.778561   1.154748   13.225334
226  161  4     0.0000   10.778561   1.154748   13.225334
227  162  3    -2.0000   10.781944   6.660203   13.310553
228  162  4     0.0000   10.781944   6.660203   13.310553
229  163  3    -2.0000   2.630505   1.356629   13.260848
230  163  4     0.0000   2.630505   1.356629   13.260848
231  164  3    -2.0000   2.530512   6.278026   12.753339
232  164  4     0.0000   2.530512   6.278026   12.753339
233  165  3    -2.0000   5.525820   1.131622   12.873531
234  165  4     0.0000   5.525820   1.131622   12.873531
235  166  3    -2.0000   5.497756   6.916851   12.623885
236  166  4     0.0000   5.497756   6.916851   12.623885
237  167  3    -2.0000   8.116776   1.003583   13.110996
238  167  4     0.0000   8.116776   1.003583   13.110996
239  168  3    -2.0000   8.219256   6.561744   13.095758
240  168  4     0.0000   8.219256   6.561744   13.095758
241  169  3    -2.0000   1.288446   3.842186   13.177829
242  169  4     0.0000   1.288446   3.842186   13.177829
243  170  3    -2.0000   1.271791   8.897854   13.250860
244  170  4     0.0000   1.271791   8.897854   13.250860
245  171  3    -2.0000   4.066044   3.766908   13.089945
246  171  4     0.0000   4.066044   3.766908   13.089945
247  172  3    -2.0000   4.041075   8.995564   13.033590
248  172  4     0.0000   4.041075   8.995564   13.033590
249  173  3    -2.0000   6.877402   4.059128   12.876470
250  173  4     0.0000   6.877402   4.059128   12.876470
251  174  3    -2.0000   6.717784   8.726933   12.998747
252  174  4     0.0000   6.717784   8.726933   12.998747
253  175  3    -2.0000   9.569941   3.797412   13.087405
254  175  4     0.0000   9.569941   3.797412   13.087405
255  176  3    -2.0000   9.517920   8.776633   13.306800
256  176  4     0.0000   9.517920   8.776633   13.306800
257  177  3    -2.0000   2.957442   1.310268   5.909079
258  177  4     0.0000   2.957442   1.310268   5.909079
259  178  3    -2.0000   2.763615   6.531613   5.499574
260  178  4     0.0000   2.763615   6.531613   5.499574
261  179  3    -2.0000   5.574831   1.256614   5.748883
262  179  4     0.0000   5.574831   1.256614   5.748883
263  180  3    -2.0000   5.482279   6.230589   5.531419
264  180  4     0.0000   5.482279   6.230589   5.531419
265  181  3    -2.0000   8.462580   1.233814   5.858948
266  181  4     0.0000   8.462580   1.233814   5.858948
267  182  3    -2.0000   8.041959   6.242099   5.750519
268  182  4     0.0000   8.041959   6.242099   5.750519
269  183  3    -2.0000   10.891946   1.184539   5.788966
270  183  4     0.0000   10.891946   1.184539   5.788966
271  184  3    -2.0000   10.796969   6.254241   5.780043
272  184  4     0.0000   10.796969   6.254241   5.780043
273  185  3    -2.0000   1.390751   3.742845   5.825945
274  185  4     0.0000   1.390751   3.742845   5.825945
275  186  3    -2.0000   1.540840   8.785316   5.815786
276  186  4     0.0000   1.540840   8.785316   5.815786
277  187  3    -2.0000   4.143879   3.690864   5.635763
278  187  4     0.0000   4.143879   3.690864   5.635763
279  188  3    -2.0000   4.130752   8.960271   5.761010
280  188  4     0.0000   4.130752   8.960271   5.761010
281  189  3    -2.0000   7.091254   3.821253   5.612076
282  189  4     0.0000   7.091254   3.821253   5.612076
283  190  3    -2.0000   6.785224   8.831754   5.778278
284  190  4     0.0000   6.785224   8.831754   5.778278
285  191  3    -2.0000   9.609992   3.658868   5.647829
286  191  4     0.0000   9.609992   3.658868   5.647829
287  192  3    -2.0000   9.661074   8.642608   5.855300
288  192  4     0.0000   9.661074   8.642608   5.855300

Bonds

1    1    97   98  
2    1    99   100 
3    1    101  102 
4    1    103  104 
5    1    105  106 
6    1    107  108 
7    1    109  110 
8    1    111  112 
9    1    113  114 
10   1    115  116 
11   1    117  118 
12   1    119  120 
13   1    121  122 
14   1    123  124 
15   1    125  126 
16   1    127  128 
17   1    129  130 
18   1    131  132 
19   1    133  134 
20   1    135  136 
21   1    137  138 
22   1    139  140 
23   1    141  142 
24   1    143  144 
25   1    145  146 
26   1    147  148 
27   1    149  150 
28   1    151  152 
29   1    153  154 
30   1    155  156 
31   1    157  158 
32   1    159  160 
33   1    161  162 
34   1    163  164 
35   1    165  166 
36   1    167  168 
37   1    169  170 
38   1    171  172 
39   1    173  174 
40   1    175  176 
41   1    177  178 
42   1    179  180 
43   1    181  182 
44   1    183  184 
45   1    185  186 
46   1    187  188 
47   1    189  190 
48   1    191  192 
49   1    193  194 
50   1    195  196 
51   1    197  198 
52   1    199  200 
53   1    201  202 
54   1    203  204 
55   1    205  206 
56   1    207  208 
57   1    209  210 
58   1    211  212 
59   1    213  214 
60   1    215  216 
61   1    217  218 
62   1    219  220 
63   1    221  222 
64   1    223  224 
65   1    225  226 
66   1    227  228 
67   1    229  230 
68   1    231  232 
69   1    233  234 
70   1    235  236 
71   1    237  238 
72   1    239  240 
73   1    241  242 
74   1    243  244 
75   1    245  246 
76   1    247  248 
77   1    249  250 
78   1    251  252 
79   1    253  254 
80   1    255  256 
81   1    257  258 
82   1    259  260 
83   1    261  262 
84   1    263  264 
85   1    265  266 
86   1    267  268 
87   1    269  270 
88   1    271  272 
89   1    273  274 
90   1    275  276 
91   1    277  278 
92   1    279  280 
93   1    281  282 
94   1    283  284 
95   1    285  286 
96   1    287  288 

