title

192   atoms
3   atom types

0.0 10.915736 xlo xhi
0.0 10.060858 ylo yhi
0.0 14.052717 zlo zhi

0.00000 0.00000 0.00000 xy xz yz 

Masses

1   6.94100 # Li
2  58.69340 # Ni
3  15.99900 # O

Atoms

1    1    1     1.0000   2.666540   1.446758   2.312332
2    2    1     1.0000   2.845633   6.682438   2.336121
3    3    1     1.0000   5.596769   1.292599   2.117299
4    4    1     1.0000   5.678723   6.524981   2.394238
5    5    1     1.0000   8.172427   1.493424   2.277159
6    6    1     1.0000   8.010494   6.338041   2.264479
7    7    1     1.0000   0.197364   0.996079   2.269712
8    8    1     1.0000   10.839276   6.424326   2.167315
9    9    1     1.0000   1.662324   3.898266   2.405075
10   10   1     1.0000   1.495224   8.593000   2.435136
11   11   1     1.0000   4.234497   4.002257   2.333945
12   12   1     1.0000   4.341998   8.729943   2.355291
13   13   1     1.0000   6.912813   3.811351   2.410528
14   14   1     1.0000   6.667801   9.039070   2.492672
15   15   1     1.0000   9.551994   3.858105   2.176590
16   16   1     1.0000   9.372308   8.529967   2.364600
17   17   1     1.0000   1.371471   0.736527   11.919120
18   18   1     1.0000   1.141104   5.093607   11.604237
19   19   1     1.0000   3.923886   0.331107   11.690633
20   20   1     1.0000   3.959150   5.773725   11.515549
21   21   1     1.0000   6.945561   0.579392   11.737700
22   22   1     1.0000   6.483062   5.670831   11.517249
23   23   1     1.0000   9.531871   0.536788   11.742319
24   24   1     1.0000   9.465939   5.315370   11.573385
25   25   1     1.0000   0.044017   2.889937   11.817841
26   26   1     1.0000   10.861743   8.134933   11.687581
27   27   1     1.0000   2.892421   3.299397   11.821762
28   28   1     1.0000   2.598320   8.281470   11.688549
29   29   1     1.0000   5.037508   3.205621   11.545289
30   30   1     1.0000   5.674557   7.847577   11.843625
31   31   1     1.0000   8.325026   3.135991   11.709727
32   32   1     1.0000   8.123942   8.189593   11.468159
33   33   1     1.0000   10.840731   4.825071   7.093886
34   34   1     1.0000   0.257630   9.588964   7.146237
35   35   1     1.0000   2.666004   4.846501   7.062685
36   36   1     1.0000   2.838994   9.699024   7.178870
37   37   1     1.0000   5.415854   4.876574   6.926322
38   38   1     1.0000   5.339028   9.930744   6.964291
39   39   1     1.0000   8.297413   4.788810   7.063662
40   40   1     1.0000   8.285432   9.954020   6.985681
41   41   1     1.0000   1.362140   2.239426   6.943976
42   42   1     1.0000   1.338979   7.291826   7.117103
43   43   1     1.0000   3.968430   2.291104   7.021029
44   44   1     1.0000   3.931727   7.341972   7.051476
45   45   1     1.0000   6.556860   2.257323   7.041407
46   46   1     1.0000   6.611701   7.313480   7.176681
47   47   1     1.0000   9.558053   2.265884   7.094901
48   48   1     1.0000   9.552106   7.337831   6.811538
49   49   2     3.0000   0.007358   4.654021   0.027495
50   50   2     3.0000   10.778238   9.629378   0.111191
51   51   2     3.0000   2.814276   4.704930   0.026872
52   52   2     3.0000   2.794037   9.717479   0.009919
53   53   2     3.0000   5.588698   4.611619   14.046174
54   54   2     3.0000   5.554524   9.742403   13.949165
55   55   2     3.0000   8.205695   4.596435   14.024443
56   56   2     3.0000   8.130388   9.759591   0.042932
57   57   2     3.0000   1.584879   2.210473   14.052106
58   58   2     3.0000   1.536760   7.138897   13.909141
59   59   2     3.0000   4.234421   2.093155   14.024742
60   60   2     3.0000   4.101297   7.124171   0.072919
61   61   2     3.0000   6.849417   2.211726   13.979777
62   62   2     3.0000   6.941344   6.993171   14.006738
63   63   2     3.0000   9.570350   2.244696   14.021486
64   64   2     3.0000   9.527638   6.936012   0.086984
65   65   2     3.0000   1.417143   0.481870   4.407126
66   66   2     3.0000   1.512929   5.512036   4.658738
67   67   2     3.0000   3.963035   0.597485   4.697179
68   68   2     3.0000   4.314914   5.523240   4.727186
69   69   2     3.0000   6.676792   0.468410   4.802347
70   70   2     3.0000   6.927820   5.479349   4.732840
71   71   2     3.0000   9.414286   0.342756   4.656138
72   72   2     3.0000   9.544775   5.387151   4.795604
73   73   2     3.0000   2.798119   3.098032   4.742455
74   74   2     3.0000   2.908515   8.046176   4.786261
75   75   2     3.0000   5.571200   2.909285   4.841595
76   76   2     3.0000   5.500846   8.139401   4.716914
77   77   2     3.0000   8.174171   3.010147   4.676338
78   78   2     3.0000   8.212861   7.957149   4.744336
79   79   2     3.0000   0.021949   2.975992   4.601706
80   80   2     3.0000   0.149790   8.025323   4.725714
81   81   2     3.0000   10.589583   1.409198   9.343806
82   82   2     3.0000   0.025292   6.460146   9.485342
83   83   2     3.0000   2.729707   1.266087   9.312108
84   84   2     3.0000   2.576166   6.521277   9.358683
85   85   2     3.0000   5.266190   1.356709   9.369432
86   86   2     3.0000   5.369777   6.524646   9.299397
87   87   2     3.0000   8.120565   1.402056   9.267946
88   88   2     3.0000   8.145319   6.509614   9.325418
89   89   2     3.0000   1.312902   3.841781   9.309617
90   90   2     3.0000   1.217619   8.989834   9.520881
91   91   2     3.0000   4.067975   4.033182   9.285137
92   92   2     3.0000   4.114281   8.949837   9.479915
93   93   2     3.0000   6.746979   3.848633   9.425919
94   94   2     3.0000   6.744535   9.105642   9.249427
95   95   2     3.0000   9.511224   3.899194   9.279953
96   96   2     3.0000   9.431952   8.843270   9.440351
97   97   3    -2.0000   3.047359   4.797054   3.673576
98   98   3    -2.0000   2.620290   9.731319   3.485480
99   99   3    -2.0000   5.563349   4.534522   3.704179
100  100  3    -2.0000   5.408242   9.822130   3.756716
101  101  3    -2.0000   8.105667   4.594754   3.652419
102  102  3    -2.0000   8.206339   9.463300   3.665883
103  103  3    -2.0000   0.002834   4.669692   3.583913
104  104  3    -2.0000   0.021476   9.705746   3.544410
105  105  3    -2.0000   1.530069   2.374465   3.454607
106  106  3    -2.0000   1.503553   7.038652   3.611822
107  107  3    -2.0000   4.021383   2.195412   3.738415
108  108  3    -2.0000   4.152697   7.199428   3.542366
109  109  3    -2.0000   6.705063   2.276640   3.606805
110  110  3    -2.0000   6.941742   7.365978   3.737647
111  111  3    -2.0000   9.388075   2.172773   3.698401
112  112  3    -2.0000   9.463275   6.952720   3.623611
113  113  3    -2.0000   10.866296   4.722968   10.485720
114  114  3    -2.0000   10.687359   9.781835   10.545274
115  115  3    -2.0000   2.583342   4.789590   10.409560
116  116  3    -2.0000   2.725262   9.712027   10.368400
117  117  3    -2.0000   5.304178   4.770350   10.372205
118  118  3    -2.0000   5.411756   9.804755   10.283595
119  119  3    -2.0000   8.003264   5.121360   10.346362
120  120  3    -2.0000   7.951647   9.694918   10.486820
121  121  3    -2.0000   1.195839   2.389068   10.480307
122  122  3    -2.0000   1.449075   7.517421   10.473402
123  123  3    -2.0000   3.768954   2.394334   10.205510
124  124  3    -2.0000   4.140260   7.304048   10.359458
125  125  3    -2.0000   6.829517   2.106098   10.393276
126  126  3    -2.0000   6.855944   7.303110   10.346698
127  127  3    -2.0000   9.476305   2.147403   10.520753
128  128  3    -2.0000   9.423960   7.278874   10.447462
129  129  3    -2.0000   1.150295   0.620191   8.387199
130  130  3    -2.0000   1.299559   5.406842   8.248336
131  131  3    -2.0000   3.933709   0.299858   8.400073
132  132  3    -2.0000   4.220438   5.560017   8.370163
133  133  3    -2.0000   6.594933   0.815527   8.302218
134  134  3    -2.0000   6.654519   5.699735   8.292674
135  135  3    -2.0000   9.384916   0.703650   8.163441
136  136  3    -2.0000   9.518714   5.558953   8.282676
137  137  3    -2.0000   10.903187   3.062008   8.128126
138  138  3    -2.0000   10.745949   8.063087   8.315124
139  139  3    -2.0000   2.740905   3.125897   8.172035
140  140  3    -2.0000   2.711432   8.190269   8.360116
141  141  3    -2.0000   5.255401   3.107572   8.302542
142  142  3    -2.0000   5.298171   8.311228   8.352169
143  143  3    -2.0000   8.191913   2.960897   8.413866
144  144  3    -2.0000   8.169250   8.138888   8.400780
145  145  3    -2.0000   1.473880   0.534507   0.906107
146  146  3    -2.0000   1.292153   5.575553   1.151499
147  147  3    -2.0000   4.085220   0.362708   0.912098
148  148  3    -2.0000   4.012190   5.503090   0.941284
149  149  3    -2.0000   6.797026   0.445094   0.951101
150  150  3    -2.0000   6.669727   5.412431   1.176022
151  151  3    -2.0000   9.682297   0.740522   1.137262
152  152  3    -2.0000   9.498078   5.297384   1.132843
153  153  3    -2.0000   0.243851   3.066114   1.228661
154  154  3    -2.0000   0.014037   7.934935   0.991157
155  155  3    -2.0000   2.974116   2.911917   1.039305
156  156  3    -2.0000   2.748390   8.023651   1.038698
157  157  3    -2.0000   5.470777   2.832686   1.021875
158  158  3    -2.0000   5.500526   7.828679   1.126948
159  159  3    -2.0000   8.158521   2.996649   1.026009
160  160  3    -2.0000   8.194369   7.773985   0.967982
161  161  3    -2.0000   10.871790   1.257588   13.256874
162  162  3    -2.0000   10.779659   6.473006   12.794104
163  163  3    -2.0000   2.823506   1.349309   13.107992
164  164  3    -2.0000   3.000027   6.249034   13.041069
165  165  3    -2.0000   5.545020   1.548115   12.878117
166  166  3    -2.0000   5.506004   6.485472   12.944290
167  167  3    -2.0000   8.109369   1.233343   13.120664
168  168  3    -2.0000   8.200867   6.207386   13.060142
169  169  3    -2.0000   1.505725   3.915988   13.111869
170  170  3    -2.0000   1.440953   8.991587   12.976385
171  171  3    -2.0000   4.305590   3.942670   13.181487
172  172  3    -2.0000   4.255127   8.888373   13.041388
173  173  3    -2.0000   6.882343   3.967510   12.859605
174  174  3    -2.0000   6.724451   8.819984   12.941954
175  175  3    -2.0000   9.468909   3.778100   12.926133
176  176  3    -2.0000   9.469460   9.007360   12.926624
177  177  3    -2.0000   2.608508   1.529643   5.795727
178  178  3    -2.0000   2.902872   6.346601   5.842704
179  179  3    -2.0000   5.299279   1.276615   5.898093
180  180  3    -2.0000   5.528667   6.424163   5.778217
181  181  3    -2.0000   8.108375   1.443325   5.616339
182  182  3    -2.0000   8.229846   6.318306   5.837645
183  183  3    -2.0000   0.099102   1.289946   5.260240
184  184  3    -2.0000   0.224001   6.204025   5.902630
185  185  3    -2.0000   1.401445   3.992739   5.697394
186  186  3    -2.0000   1.758185   9.149710   5.821630
187  187  3    -2.0000   4.271751   3.911558   5.685255
188  188  3    -2.0000   4.318666   8.898340   5.704800
189  189  3    -2.0000   6.867633   3.672455   5.764695
190  190  3    -2.0000   6.851266   8.854132   5.888540
191  191  3    -2.0000   9.496773   3.745695   5.608940
192  192  3    -2.0000   9.548700   8.887147   5.756855

