title

288   atoms
96   bonds

4   atom types
1   bond types

0.0 12.176542 xlo xhi
0.0 9.588531 ylo yhi
0.0 13.997015 zlo zhi

-4.66146 0.58146 0.44776 xy xz yz 

Masses

1   6.94100 # Li
2  58.69340 # Ni
3  15.00000 # O core
4   1.00000 # O shell

Atoms

1    1    1     1.0000   0.256157   1.670972   2.332841
2    2    1     1.0000  -0.909209   4.065490   2.332841
3    3    1     1.0000  -2.074575   6.460008   2.332841
4    4    1     1.0000  -3.239941   8.854525   2.332841
5    5    1     1.0000   3.064636   1.670972   2.332841
6    6    1     1.0000   1.899270   4.065490   2.332841
7    7    1     1.0000   0.733904   6.460008   2.332841
8    8    1     1.0000  -0.431462   8.854525   2.332841
9    9    1     1.0000   5.873115   1.670972   2.332841
10   10   1     1.0000   4.707749   4.065490   2.332841
11   11   1     1.0000   3.542383   6.460008   2.332841
12   12   1     1.0000   2.377017   8.854525   2.332841
13   13   1     1.0000   8.681593   1.670972   2.332841
14   14   1     1.0000   7.516227   4.065490   2.332841
15   15   1     1.0000   6.350862   6.460008   2.332841
16   16   1     1.0000   5.185496   8.854525   2.332841
17   17   1     1.0000   0.290728   0.223878   6.998508
18   18   1     1.0000  -0.874638   2.618396   6.998508
19   19   1     1.0000  -2.040004   5.012914   6.998508
20   20   1     1.0000  -3.205370   7.407431   6.998508
21   21   1     1.0000   3.099207   0.223878   6.998508
22   22   1     1.0000   1.933841   2.618396   6.998508
23   23   1     1.0000   0.768475   5.012914   6.998508
24   24   1     1.0000  -0.396891   7.407431   6.998508
25   25   1     1.0000   5.907685   0.223878   6.998508
26   26   1     1.0000   4.742320   2.618396   6.998508
27   27   1     1.0000   3.576954   5.012914   6.998508
28   28   1     1.0000   2.411588   7.407431   6.998508
29   29   1     1.0000   8.716164   0.223878   6.998508
30   30   1     1.0000   7.550798   2.618396   6.998508
31   31   1     1.0000   6.385432   5.012914   6.998508
32   32   1     1.0000   5.220066   7.407431   6.998508
33   33   1     1.0000   1.968412   1.171302   11.664189
34   34   1     1.0000   0.803046   3.565820   11.664189
35   35   1     1.0000  -0.362320   5.960338   11.664189
36   36   1     1.0000  -1.527685   8.354855   11.664189
37   37   1     1.0000   4.776891   1.171302   11.664189
38   38   1     1.0000   3.611525   3.565820   11.664189
39   39   1     1.0000   2.446159   5.960338   11.664189
40   40   1     1.0000   1.280793   8.354855   11.664189
41   41   1     1.0000   7.585370   1.171302   11.664189
42   42   1     1.0000   6.420004   3.565820   11.664189
43   43   1     1.0000   5.254638   5.960338   11.664189
44   44   1     1.0000   4.089272   8.354855   11.664189
45   45   1     1.0000   10.393848   1.171302   11.664189
46   46   1     1.0000   9.228482   3.565820   11.664189
47   47   1     1.0000   8.063117   5.960338   11.664189
48   48   1     1.0000   6.897751   8.354855   11.664189
49   49   2     3.0000   0.000000   0.000000   0.000000
50   50   2     3.0000  -1.165366   2.394518   0.000000
51   51   2     3.0000  -2.330732   4.789036   0.000000
52   52   2     3.0000  -3.496098   7.183553   0.000000
53   53   2     3.0000   2.808479  -0.000000   0.000000
54   54   2     3.0000   1.643113   2.394518   0.000000
55   55   2     3.0000   0.477747   4.789036   0.000000
56   56   2     3.0000  -0.687619   7.183553   0.000000
57   57   2     3.0000   5.616957  -0.000000   0.000000
58   58   2     3.0000   4.451592   2.394518  -0.000000
59   59   2     3.0000   3.286226   4.789036   0.000000
60   60   2     3.0000   2.120860   7.183553   0.000000
61   61   2     3.0000   8.425436  -0.000000   0.000000
62   62   2     3.0000   7.260070   2.394518   0.000000
63   63   2     3.0000   6.094704   4.789036   0.000000
64   64   2     3.0000   4.929338   7.183553  -0.000000
65   65   2     3.0000   1.677684   0.947424   4.665667
66   66   2     3.0000   0.512318   3.341941   4.665667
67   67   2     3.0000  -0.653048   5.736459   4.665667
68   68   2     3.0000  -1.818414   8.130977   4.665667
69   69   2     3.0000   4.486162   0.947424   4.665667
70   70   2     3.0000   3.320796   3.341941   4.665667
71   71   2     3.0000   2.155431   5.736459   4.665667
72   72   2     3.0000   0.990065   8.130977   4.665667
73   73   2     3.0000   7.294641   0.947424   4.665667
74   74   2     3.0000   6.129275   3.341941   4.665667
75   75   2     3.0000   4.963909   5.736459   4.665667
76   76   2     3.0000   3.798543   8.130977   4.665667
77   77   2     3.0000   10.103120   0.947424   4.665667
78   78   2     3.0000   8.937754   3.341941   4.665667
79   79   2     3.0000   7.772388   5.736459   4.665667
80   80   2     3.0000   6.607022   8.130977   4.665667
81   81   2     3.0000   0.546885   1.894850   9.331347
82   82   2     3.0000  -0.618481   4.289368   9.331347
83   83   2     3.0000  -1.783847   6.683886   9.331347
84   84   2     3.0000  -2.949213   9.078403   9.331347
85   85   2     3.0000   3.355364   1.894850   9.331347
86   86   2     3.0000   2.189998   4.289368   9.331347
87   87   2     3.0000   1.024632   6.683886   9.331347
88   88   2     3.0000  -0.140734   9.078403   9.331347
89   89   2     3.0000   6.163843   1.894850   9.331347
90   90   2     3.0000   4.998477   4.289368   9.331347
91   91   2     3.0000   3.833111   6.683886   9.331347
92   92   2     3.0000   2.667745   9.078403   9.331347
93   93   2     3.0000   8.972321   1.894850   9.331347
94   94   2     3.0000   7.806955   4.289368   9.331347
95   95   2     3.0000   6.641590   6.683886   9.331347
96   96   2     3.0000   5.476224   9.078403   9.331347
97   97   3     0.9600   0.098635   0.078358   3.624457
98   97   4    -2.9600   0.098635   0.078358   3.624457
99   98   3     0.9600  -1.066730   2.472875   3.624457
100  98   4    -2.9600  -1.066730   2.472875   3.624457
101  99   3     0.9600  -2.232096   4.867393   3.624457
102  99   4    -2.9600  -2.232096   4.867393   3.624457
103  100  3     0.9600  -3.397462   7.261911   3.624457
104  100  4    -2.9600  -3.397462   7.261911   3.624457
105  101  3     0.9600   2.907114   0.078358   3.624457
106  101  4    -2.9600   2.907114   0.078358   3.624457
107  102  3     0.9600   1.741748   2.472875   3.624457
108  102  4    -2.9600   1.741748   2.472875   3.624457
109  103  3     0.9600   0.576382   4.867393   3.624457
110  103  4    -2.9600   0.576382   4.867393   3.624457
111  104  3     0.9600  -0.588984   7.261911   3.624457
112  104  4    -2.9600  -0.588984   7.261911   3.624457
113  105  3     0.9600   5.715593   0.078358   3.624457
114  105  4    -2.9600   5.715593   0.078358   3.624457
115  106  3     0.9600   4.550227   2.472875   3.624457
116  106  4    -2.9600   4.550227   2.472875   3.624457
117  107  3     0.9600   3.384861   4.867393   3.624457
118  107  4    -2.9600   3.384861   4.867393   3.624457
119  108  3     0.9600   2.219495   7.261911   3.624457
120  108  4    -2.9600   2.219495   7.261911   3.624457
121  109  3     0.9600   8.524072   0.078358   3.624457
122  109  4    -2.9600   8.524072   0.078358   3.624457
123  110  3     0.9600   7.358706   2.472875   3.624457
124  110  4    -2.9600   7.358706   2.472875   3.624457
125  111  3     0.9600   6.193340   4.867393   3.624457
126  111  4    -2.9600   6.193340   4.867393   3.624457
127  112  3     0.9600   5.027974   7.261911   3.624457
128  112  4    -2.9600   5.027974   7.261911   3.624457
129  113  3     0.9600   1.579048   0.869066   1.041210
130  113  4    -2.9600   1.579048   0.869066   1.041210
131  114  3     0.9600   0.413682   3.263584   1.041210
132  114  4    -2.9600   0.413682   3.263584   1.041210
133  115  3     0.9600  -0.751684   5.658102   1.041210
134  115  4    -2.9600  -0.751684   5.658102   1.041210
135  116  3     0.9600  -1.917049   8.052619   1.041210
136  116  4    -2.9600  -1.917049   8.052619   1.041210
137  117  3     0.9600   4.387527   0.869066   1.041210
138  117  4    -2.9600   4.387527   0.869066   1.041210
139  118  3     0.9600   3.222161   3.263584   1.041210
140  118  4    -2.9600   3.222161   3.263584   1.041210
141  119  3     0.9600   2.056795   5.658102   1.041210
142  119  4    -2.9600   2.056795   5.658102   1.041210
143  120  3     0.9600   0.891429   8.052619   1.041210
144  120  4    -2.9600   0.891429   8.052619   1.041210
145  121  3     0.9600   7.196006   0.869066   1.041210
146  121  4    -2.9600   7.196006   0.869066   1.041210
147  122  3     0.9600   6.030640   3.263584   1.041210
148  122  4    -2.9600   6.030640   3.263584   1.041210
149  123  3     0.9600   4.865274   5.658102   1.041210
150  123  4    -2.9600   4.865274   5.658102   1.041210
151  124  3     0.9600   3.699908   8.052619   1.041210
152  124  4    -2.9600   3.699908   8.052619   1.041210
153  125  3     0.9600   10.004484   0.869066   1.041210
154  125  4    -2.9600   10.004484   0.869066   1.041210
155  126  3     0.9600   8.839118   3.263584   1.041210
156  126  4    -2.9600   8.839118   3.263584   1.041210
157  127  3     0.9600   7.673753   5.658102   1.041210
158  127  4    -2.9600   7.673753   5.658102   1.041210
159  128  3     0.9600   6.508387   8.052619   1.041210
160  128  4    -2.9600   6.508387   8.052619   1.041210
161  129  3     0.9600   1.776319   1.025781   8.290124
162  129  4    -2.9600   1.776319   1.025781   8.290124
163  130  3     0.9600   0.610953   3.420299   8.290124
164  130  4    -2.9600   0.610953   3.420299   8.290124
165  131  3     0.9600  -0.554413   5.814817   8.290124
166  131  4    -2.9600  -0.554413   5.814817   8.290124
167  132  3     0.9600  -1.719779   8.209335   8.290124
168  132  4    -2.9600  -1.719779   8.209335   8.290124
169  133  3     0.9600   4.584798   1.025781   8.290124
170  133  4    -2.9600   4.584798   1.025781   8.290124
171  134  3     0.9600   3.419432   3.420299   8.290124
172  134  4    -2.9600   3.419432   3.420299   8.290124
173  135  3     0.9600   2.254066   5.814817   8.290124
174  135  4    -2.9600   2.254066   5.814817   8.290124
175  136  3     0.9600   1.088700   8.209335   8.290124
176  136  4    -2.9600   1.088700   8.209335   8.290124
177  137  3     0.9600   7.393276   1.025781   8.290124
178  137  4    -2.9600   7.393276   1.025781   8.290124
179  138  3     0.9600   6.227911   3.420299   8.290124
180  138  4    -2.9600   6.227911   3.420299   8.290124
181  139  3     0.9600   5.062545   5.814817   8.290124
182  139  4    -2.9600   5.062545   5.814817   8.290124
183  140  3     0.9600   3.897179   8.209335   8.290124
184  140  4    -2.9600   3.897179   8.209335   8.290124
185  141  3     0.9600   10.201755   1.025781   8.290124
186  141  4    -2.9600   10.201755   1.025781   8.290124
187  142  3     0.9600   9.036389   3.420299   8.290124
188  142  4    -2.9600   9.036389   3.420299   8.290124
189  143  3     0.9600   7.871023   5.814817   8.290124
190  143  4    -2.9600   7.871023   5.814817   8.290124
191  144  3     0.9600   6.705657   8.209335   8.290124
192  144  4    -2.9600   6.705657   8.209335   8.290124
193  145  3     0.9600   0.448250   1.816492   5.706891
194  145  4    -2.9600   0.448250   1.816492   5.706891
195  146  3     0.9600  -0.717116   4.211010   5.706891
196  146  4    -2.9600  -0.717116   4.211010   5.706891
197  147  3     0.9600  -1.882482   6.605528   5.706891
198  147  4    -2.9600  -1.882482   6.605528   5.706891
199  148  3     0.9600  -3.047848   9.000046   5.706891
200  148  4    -2.9600  -3.047848   9.000046   5.706891
201  149  3     0.9600   3.256728   1.816492   5.706891
202  149  4    -2.9600   3.256728   1.816492   5.706891
203  150  3     0.9600   2.091363   4.211010   5.706891
204  150  4    -2.9600   2.091363   4.211010   5.706891
205  151  3     0.9600   0.925997   6.605528   5.706891
206  151  4    -2.9600   0.925997   6.605528   5.706891
207  152  3     0.9600  -0.239369   9.000046   5.706891
208  152  4    -2.9600  -0.239369   9.000046   5.706891
209  153  3     0.9600   6.065207   1.816492   5.706891
210  153  4    -2.9600   6.065207   1.816492   5.706891
211  154  3     0.9600   4.899841   4.211010   5.706891
212  154  4    -2.9600   4.899841   4.211010   5.706891
213  155  3     0.9600   3.734475   6.605528   5.706891
214  155  4    -2.9600   3.734475   6.605528   5.706891
215  156  3     0.9600   2.569110   9.000046   5.706891
216  156  4    -2.9600   2.569110   9.000046   5.706891
217  157  3     0.9600   8.873686   1.816492   5.706891
218  157  4    -2.9600   8.873686   1.816492   5.706891
219  158  3     0.9600   7.708320   4.211010   5.706891
220  158  4    -2.9600   7.708320   4.211010   5.706891
221  159  3     0.9600   6.542954   6.605528   5.706891
222  159  4    -2.9600   6.542954   6.605528   5.706891
223  160  3     0.9600   5.377588   9.000046   5.706891
224  160  4    -2.9600   5.377588   9.000046   5.706891
225  161  3     0.9600   0.645521   1.973208   12.955805
226  161  4    -2.9600   0.645521   1.973208   12.955805
227  162  3     0.9600  -0.519845   4.367726   12.955805
228  162  4    -2.9600  -0.519845   4.367726   12.955805
229  163  3     0.9600  -1.685211   6.762243   12.955805
230  163  4    -2.9600  -1.685211   6.762243   12.955805
231  164  3     0.9600  -2.850577   9.156761   12.955805
232  164  4    -2.9600  -2.850577   9.156761   12.955805
233  165  3     0.9600   3.453999   1.973208   12.955805
234  165  4    -2.9600   3.453999   1.973208   12.955805
235  166  3     0.9600   2.288633   4.367726   12.955805
236  166  4    -2.9600   2.288633   4.367726   12.955805
237  167  3     0.9600   1.123268   6.762243   12.955805
238  167  4    -2.9600   1.123268   6.762243   12.955805
239  168  3     0.9600  -0.042098   9.156761   12.955805
240  168  4    -2.9600  -0.042098   9.156761   12.955805
241  169  3     0.9600   6.262478   1.973208   12.955805
242  169  4    -2.9600   6.262478   1.973208   12.955805
243  170  3     0.9600   5.097112   4.367726   12.955805
244  170  4    -2.9600   5.097112   4.367726   12.955805
245  171  3     0.9600   3.931746   6.762243   12.955805
246  171  4    -2.9600   3.931746   6.762243   12.955805
247  172  3     0.9600   2.766380   9.156761   12.955805
248  172  4    -2.9600   2.766380   9.156761   12.955805
249  173  3     0.9600   9.070957   1.973208   12.955805
250  173  4    -2.9600   9.070957   1.973208   12.955805
251  174  3     0.9600   7.905591   4.367726   12.955805
252  174  4    -2.9600   7.905591   4.367726   12.955805
253  175  3     0.9600   6.740225   6.762243   12.955805
254  175  4    -2.9600   6.740225   6.762243   12.955805
255  176  3     0.9600   5.574859   9.156761   12.955805
256  176  4    -2.9600   5.574859   9.156761   12.955805
257  177  3     0.9600   0.482821   0.369398   10.372558
258  177  4    -2.9600   0.482821   0.369398   10.372558
259  178  3     0.9600  -0.682545   2.763916   10.372558
260  178  4    -2.9600  -0.682545   2.763916   10.372558
261  179  3     0.9600  -1.847911   5.158434   10.372558
262  179  4    -2.9600  -1.847911   5.158434   10.372558
263  180  3     0.9600  -3.013277   7.552952   10.372558
264  180  4    -2.9600  -3.013277   7.552952   10.372558
265  181  3     0.9600   3.291299   0.369398   10.372558
266  181  4    -2.9600   3.291299   0.369398   10.372558
267  182  3     0.9600   2.125933   2.763916   10.372558
268  182  4    -2.9600   2.125933   2.763916   10.372558
269  183  3     0.9600   0.960568   5.158434   10.372558
270  183  4    -2.9600   0.960568   5.158434   10.372558
271  184  3     0.9600  -0.204798   7.552952   10.372558
272  184  4    -2.9600  -0.204798   7.552952   10.372558
273  185  3     0.9600   6.099778   0.369398   10.372558
274  185  4    -2.9600   6.099778   0.369398   10.372558
275  186  3     0.9600   4.934412   2.763916   10.372558
276  186  4    -2.9600   4.934412   2.763916   10.372558
277  187  3     0.9600   3.769046   5.158434   10.372558
278  187  4    -2.9600   3.769046   5.158434   10.372558
279  188  3     0.9600   2.603680   7.552952   10.372558
280  188  4    -2.9600   2.603680   7.552952   10.372558
281  189  3     0.9600   8.908257   0.369398   10.372558
282  189  4    -2.9600   8.908257   0.369398   10.372558
283  190  3     0.9600   7.742891   2.763916   10.372558
284  190  4    -2.9600   7.742891   2.763916   10.372558
285  191  3     0.9600   6.577525   5.158434   10.372558
286  191  4    -2.9600   6.577525   5.158434   10.372558
287  192  3     0.9600   5.412159   7.552952   10.372558
288  192  4    -2.9600   5.412159   7.552952   10.372558

Bonds

1    1    97   98  
2    1    99   100 
3    1    101  102 
4    1    103  104 
5    1    105  106 
6    1    107  108 
7    1    109  110 
8    1    111  112 
9    1    113  114 
10   1    115  116 
11   1    117  118 
12   1    119  120 
13   1    121  122 
14   1    123  124 
15   1    125  126 
16   1    127  128 
17   1    129  130 
18   1    131  132 
19   1    133  134 
20   1    135  136 
21   1    137  138 
22   1    139  140 
23   1    141  142 
24   1    143  144 
25   1    145  146 
26   1    147  148 
27   1    149  150 
28   1    151  152 
29   1    153  154 
30   1    155  156 
31   1    157  158 
32   1    159  160 
33   1    161  162 
34   1    163  164 
35   1    165  166 
36   1    167  168 
37   1    169  170 
38   1    171  172 
39   1    173  174 
40   1    175  176 
41   1    177  178 
42   1    179  180 
43   1    181  182 
44   1    183  184 
45   1    185  186 
46   1    187  188 
47   1    189  190 
48   1    191  192 
49   1    193  194 
50   1    195  196 
51   1    197  198 
52   1    199  200 
53   1    201  202 
54   1    203  204 
55   1    205  206 
56   1    207  208 
57   1    209  210 
58   1    211  212 
59   1    213  214 
60   1    215  216 
61   1    217  218 
62   1    219  220 
63   1    221  222 
64   1    223  224 
65   1    225  226 
66   1    227  228 
67   1    229  230 
68   1    231  232 
69   1    233  234 
70   1    235  236 
71   1    237  238 
72   1    239  240 
73   1    241  242 
74   1    243  244 
75   1    245  246 
76   1    247  248 
77   1    249  250 
78   1    251  252 
79   1    253  254 
80   1    255  256 
81   1    257  258 
82   1    259  260 
83   1    261  262 
84   1    263  264 
85   1    265  266 
86   1    267  268 
87   1    269  270 
88   1    271  272 
89   1    273  274 
90   1    275  276 
91   1    277  278 
92   1    279  280 
93   1    281  282 
94   1    283  284 
95   1    285  286 
96   1    287  288 

