title

288   atoms
96   bonds

4   atom types
1   bond types

0.0 12.176542 xlo xhi
0.0 9.588532 ylo yhi
0.0 13.997015 zlo zhi

-4.66146 0.58146 0.44776 xy xz yz 

Masses

1   6.94100 # Li
2  58.69340 # Ni
3  14.39910 # O core
4   1.59990 # O shell

Atoms

1    1    1     1.0000   0.540942   1.960536   2.139934
2    2    1     1.0000  -0.882276   4.137675   2.273031
3    3    1     1.0000  -2.142846   6.437909   2.472223
4    4    1     1.0000  -3.079128   8.795099   2.376035
5    5    1     1.0000   3.168466   1.617739   2.173233
6    6    1     1.0000   1.721758   4.118592   2.602577
7    7    1     1.0000   0.696271   6.565753   2.431673
8    8    1     1.0000  -0.257800   8.942820   1.972669
9    9    1     1.0000   5.856639   1.611012   2.482735
10   10   1     1.0000   4.915996   3.899614   2.249138
11   11   1     1.0000   3.482997   6.409802   2.256487
12   12   1     1.0000   2.223533   8.922466   2.366083
13   13   1     1.0000   8.644581   1.433619   2.272611
14   14   1     1.0000   7.780768   4.334938   2.413841
15   15   1     1.0000   6.136902   6.167591   2.348993
16   16   1     1.0000   5.383566   8.701892   2.565779
17   17   1     1.0000   6.664501   9.635015   6.903958
18   18   1     1.0000  -0.683043   2.711031   6.976518
19   19   1     1.0000  -1.906938   4.894538   6.919760
20   20   1     1.0000  -3.152857   7.410130   7.048141
21   21   1     1.0000  -1.742575   9.391560   7.070438
22   22   1     1.0000   1.853349   2.409858   6.940000
23   23   1     1.0000   0.933339   4.815355   6.823601
24   24   1     1.0000  -0.359402   7.262160   6.946691
25   25   1     1.0000   1.636971   9.708537   7.170433
26   26   1     1.0000   4.986593   2.498534   6.908927
27   27   1     1.0000   3.648676   5.024239   7.214510
28   28   1     1.0000   2.296084   7.393044   6.986498
29   29   1     1.0000   8.970096   0.416712   6.874802
30   30   1     1.0000   7.673947   2.763300   6.919397
31   31   1     1.0000   6.536119   5.119277   7.311943
32   32   1     1.0000   5.353681   7.482132   6.698538
33   33   1     1.0000   1.812777   1.177670   11.616291
34   34   1     1.0000   0.782611   3.513522   11.723200
35   35   1     1.0000  -0.359647   6.313293   11.814965
36   36   1     1.0000  -1.687930   8.579756   11.665673
37   37   1     1.0000   4.776711   1.066039   11.828332
38   38   1     1.0000   3.454438   3.526047   11.660522
39   39   1     1.0000   2.491034   5.979924   11.355527
40   40   1     1.0000   0.882477   8.199552   11.580585
41   41   1     1.0000   7.923555   0.811243   11.795397
42   42   1     1.0000   6.422577   3.467175   11.671117
43   43   1     1.0000   5.121854   5.977595   11.488414
44   44   1     1.0000   4.241263   8.612650   11.463080
45   45   1     1.0000   10.722711   1.376245   11.711891
46   46   1     1.0000   9.225329   3.709596   11.813047
47   47   1     1.0000   7.773742   6.072416   11.569219
48   48   1     1.0000   6.728295   8.481645   11.491326
49   49   2     3.0000   6.508990   9.581283   0.244122
50   50   2     3.0000   10.042420   2.382959   0.013843
51   51   2     3.0000   8.796568   4.764268   0.025475
52   52   2     3.0000   7.693521   7.158817   0.143833
53   53   2     3.0000  -1.226574   9.825330   13.917666
54   54   2     3.0000   2.195393   2.685651   13.847247
55   55   2     3.0000   1.060664   5.173329   13.800049
56   56   2     3.0000  -0.489682   7.070761   0.085592
57   57   2     3.0000   6.114394   0.485076   13.816580
58   58   2     3.0000   5.055317   2.827981   13.977770
59   59   2     3.0000   3.960417   5.277576   13.878167
60   60   2     3.0000   2.800845   7.731117   13.705807
61   61   2     3.0000   9.082997   0.464030   13.962905
62   62   2     3.0000   7.248031   2.413456   0.167740
63   63   2     3.0000   6.662011   5.275018   13.915875
64   64   2     3.0000   5.685514   7.612407   13.872288
65   65   2     3.0000   1.759436   0.963022   4.538938
66   66   2     3.0000   0.579458   3.307320   4.625426
67   67   2     3.0000  -0.678032   5.632436   4.728458
68   68   2     3.0000  -1.729068   8.176844   4.666269
69   69   2     3.0000   4.629198   0.751725   4.803188
70   70   2     3.0000   3.542850   3.344970   4.714307
71   71   2     3.0000   2.252171   5.610654   4.762247
72   72   2     3.0000   1.056541   8.030297   4.684451
73   73   2     3.0000   7.371504   0.834262   4.631123
74   74   2     3.0000   6.237493   3.290752   4.618889
75   75   2     3.0000   4.865721   5.668630   4.795461
76   76   2     3.0000   3.758102   8.188988   4.776398
77   77   2     3.0000   10.226350   1.004712   4.590937
78   78   2     3.0000   8.873181   3.253602   4.583379
79   79   2     3.0000   7.815512   5.775090   4.710122
80   80   2     3.0000   6.852657   8.022996   4.774480
81   81   2     3.0000   0.162210   1.851138   9.375649
82   82   2     3.0000  -0.734808   4.472371   9.413455
83   83   2     3.0000  -1.869399   6.722445   9.405141
84   84   2     3.0000  -3.036275   9.202511   9.399374
85   85   2     3.0000   3.318811   1.980096   9.145958
86   86   2     3.0000   1.975158   4.335881   9.333126
87   87   2     3.0000   0.897961   6.810274   9.148183
88   88   2     3.0000  -0.283432   9.239124   9.215397
89   89   2     3.0000   6.308648   1.977522   9.515227
90   90   2     3.0000   5.118464   4.253662   9.431301
91   91   2     3.0000   3.798013   6.805443   9.388806
92   92   2     3.0000   2.638461   8.997109   9.152648
93   93   2     3.0000   8.789253   2.060236   9.388806
94   94   2     3.0000   7.639162   4.434759   9.488633
95   95   2     3.0000   6.593247   6.736558   9.437936
96   96   2     3.0000   5.402296   9.131446   9.215355
97   97   3     0.9600   6.655743   9.469182   3.805061
98   97   4    -2.9600   6.655743   9.469182   3.805061
99   98   3     0.9600   9.923773   2.402173   3.426273
100  98   4    -2.9600   9.923773   2.402173   3.426273
101  99   3     0.9600   8.939611   4.892569   3.603854
102  99   4    -2.9600   8.939611   4.892569   3.603854
103  100  3     0.9600  -3.202688   7.258208   3.623603
104  100  4    -2.9600  -3.202688   7.258208   3.623603
105  101  3     0.9600  -1.747742   9.605376   3.463254
106  101  4    -2.9600  -1.747742   9.605376   3.463254
107  102  3     0.9600   1.929124   2.482214   3.407321
108  102  4    -2.9600   1.929124   2.482214   3.407321
109  103  3     0.9600   0.725209   4.876959   3.770110
110  103  4    -2.9600   0.725209   4.876959   3.770110
111  104  3     0.9600  -0.419759   7.258761   3.786403
112  104  4    -2.9600  -0.419759   7.258761   3.786403
113  105  3     0.9600   0.812166   9.430754   3.427477
114  105  4    -2.9600   0.812166   9.430754   3.427477
115  106  3     0.9600   4.756921   2.351318   3.816846
116  106  4    -2.9600   4.756921   2.351318   3.816846
117  107  3     0.9600   3.593920   4.939391   3.748933
118  107  4    -2.9600   3.593920   4.939391   3.748933
119  108  3     0.9600   2.207474   7.206586   3.615639
120  108  4    -2.9600   2.207474   7.206586   3.615639
121  109  3     0.9600   4.106140   9.592919   3.610082
122  109  4    -2.9600   4.106140   9.592919   3.610082
123  110  3     0.9600   7.361662   2.438427   3.597275
124  110  4    -2.9600   7.361662   2.438427   3.597275
125  111  3     0.9600   6.129419   4.834984   3.393912
126  111  4    -2.9600   6.129419   4.834984   3.393912
127  112  3     0.9600   5.258378   7.215469   3.925953
128  112  4    -2.9600   5.258378   7.215469   3.925953
129  113  3     0.9600   1.502261   0.665135   0.994516
130  113  4    -2.9600   1.502261   0.665135   0.994516
131  114  3     0.9600   0.343016   3.277648   0.813912
132  114  4    -2.9600   0.343016   3.277648   0.813912
133  115  3     0.9600  -0.476973   5.637517   1.223661
134  115  4    -2.9600  -0.476973   5.637517   1.223661
135  116  3     0.9600  -1.901498   7.915209   1.181068
136  116  4    -2.9600  -1.901498   7.915209   1.181068
137  117  3     0.9600   4.495298   0.850837   1.209258
138  117  4    -2.9600   4.495298   0.850837   1.209258
139  118  3     0.9600   3.173571   3.467217   1.210028
140  118  4    -2.9600   3.173571   3.467217   1.210028
141  119  3     0.9600   2.342114   5.811937   0.982423
142  119  4    -2.9600   2.342114   5.811937   0.982423
143  120  3     0.9600   0.998738   7.890212   0.797284
144  120  4    -2.9600   0.998738   7.890212   0.797284
145  121  3     0.9600   7.025247   0.806369   1.025505
146  121  4    -2.9600   7.025247   0.806369   1.025505
147  122  3     0.9600   6.016017   3.139088   1.053317
148  122  4    -2.9600   6.016017   3.139088   1.053317
149  123  3     0.9600   4.848052   5.687616   0.822325
150  123  4    -2.9600   4.848052   5.687616   0.822325
151  124  3     0.9600   3.620848   8.019210   0.691593
152  124  4    -2.9600   3.620848   8.019210   0.691593
153  125  3     0.9600   10.371294   1.166767   1.208572
154  125  4    -2.9600   10.371294   1.166767   1.208572
155  126  3     0.9600   8.689837   3.255166   1.007869
156  126  4    -2.9600   8.689837   3.255166   1.007869
157  127  3     0.9600   7.391184   5.576235   1.034673
158  127  4    -2.9600   7.391184   5.576235   1.034673
159  128  3     0.9600   6.474185   8.129266   1.284856
160  128  4    -2.9600   6.474185   8.129266   1.284856
161  129  3     0.9600   1.180550   0.891830   8.213729
162  129  4    -2.9600   1.180550   0.891830   8.213729
163  130  3     0.9600   0.317410   3.614504   8.420367
164  130  4    -2.9600   0.317410   3.614504   8.420367
165  131  3     0.9600  -0.501337   6.036352   8.407909
166  131  4    -2.9600  -0.501337   6.036352   8.407909
167  132  3     0.9600  -1.869414   8.262218   8.444707
168  132  4    -2.9600  -1.869414   8.262218   8.444707
169  133  3     0.9600   5.045552   1.224301   8.296563
170  133  4    -2.9600   5.045552   1.224301   8.296563
171  134  3     0.9600   3.254360   3.349318   8.206660
172  134  4    -2.9600   3.254360   3.349318   8.206660
173  135  3     0.9600   1.797906   5.649825   8.185931
174  135  4    -2.9600   1.797906   5.649825   8.185931
175  136  3     0.9600   0.803683   8.293671   8.176091
176  136  4    -2.9600   0.803683   8.293671   8.176091
177  137  3     0.9600   7.558681   1.219683   8.590850
178  137  4    -2.9600   7.558681   1.219683   8.590850
179  138  3     0.9600   6.119616   3.406645   8.251632
180  138  4    -2.9600   6.119616   3.406645   8.251632
181  139  3     0.9600   5.069185   5.983241   8.553408
182  139  4    -2.9600   5.069185   5.983241   8.553408
183  140  3     0.9600   3.697947   8.341328   7.917594
184  140  4    -2.9600   3.697947   8.341328   7.917594
185  141  3     0.9600   9.835370   1.182888   8.205316
186  141  4    -2.9600   9.835370   1.182888   8.205316
187  142  3     0.9600   8.951248   3.724868   8.399595
188  142  4    -2.9600   8.951248   3.724868   8.399595
189  143  3     0.9600   7.917143   5.889959   8.407853
190  143  4    -2.9600   7.917143   5.889959   8.407853
191  144  3     0.9600   6.433760   8.114216   8.188968
192  144  4    -2.9600   6.433760   8.114216   8.188968
193  145  3     0.9600   0.360262   1.847966   5.414647
194  145  4    -2.9600   0.360262   1.847966   5.414647
195  146  3     0.9600  -0.804027   4.022645   5.567873
196  146  4    -2.9600  -0.804027   4.022645   5.567873
197  147  3     0.9600  -1.771032   6.546412   5.890406
198  147  4    -2.9600  -1.771032   6.546412   5.890406
199  148  3     0.9600  -2.776458   9.148815   5.698283
200  148  4    -2.9600  -2.776458   9.148815   5.698283
201  149  3     0.9600   3.210262   1.733091   5.797130
202  149  4    -2.9600   3.210262   1.733091   5.797130
203  150  3     0.9600   2.406588   4.155754   5.965262
204  150  4    -2.9600   2.406588   4.155754   5.965262
205  151  3     0.9600   1.125898   6.612506   5.959439
206  151  4    -2.9600   1.125898   6.612506   5.959439
207  152  3     0.9600  -0.220401   8.826343   5.593865
208  152  4    -2.9600  -0.220401   8.826343   5.593865
209  153  3     0.9600   6.361625   1.822103   5.626870
210  153  4    -2.9600   6.361625   1.822103   5.626870
211  154  3     0.9600   5.045207   4.122748   5.799397
212  154  4    -2.9600   5.045207   4.122748   5.799397
213  155  3     0.9600   3.633615   6.630693   5.891428
214  155  4    -2.9600   3.633615   6.630693   5.891428
215  156  3     0.9600   2.333525   8.821690   5.558271
216  156  4    -2.9600   2.333525   8.821690   5.558271
217  157  3     0.9600   9.009128   1.667607   5.779200
218  157  4    -2.9600   9.009128   1.667607   5.779200
219  158  3     0.9600   7.587313   4.270384   5.713148
220  158  4    -2.9600   7.587313   4.270384   5.713148
221  159  3     0.9600   6.469758   6.508142   5.652499
222  159  4    -2.9600   6.469758   6.508142   5.652499
223  160  3     0.9600   5.634763   8.974226   5.752773
224  160  4    -2.9600   5.634763   8.974226   5.752773
225  161  3     0.9600   0.619687   1.900258   12.943880
226  161  4    -2.9600   0.619687   1.900258   12.943880
227  162  3     0.9600  -0.743886   4.210711   12.965785
228  162  4    -2.9600  -0.743886   4.210711   12.965785
229  163  3     0.9600  -1.616933   6.684120   13.059397
230  163  4    -2.9600  -1.616933   6.684120   13.059397
231  164  3     0.9600  -3.108539   9.014685   13.015685
232  164  4    -2.9600  -3.108539   9.014685   13.015685
233  165  3     0.9600   3.416400   1.756706   12.781123
234  165  4    -2.9600   3.416400   1.756706   12.781123
235  166  3     0.9600   2.662207   4.454175   12.970866
236  166  4    -2.9600   2.662207   4.454175   12.970866
237  167  3     0.9600   1.285378   6.727937   12.946455
238  167  4    -2.9600   1.285378   6.727937   12.946455
239  168  3     0.9600  -0.304839   8.886706   12.795428
240  168  4    -2.9600  -0.304839   8.886706   12.795428
241  169  3     0.9600   6.449884   2.112114   13.154913
242  169  4    -2.9600   6.449884   2.112114   13.154913
243  170  3     0.9600   5.305574   4.395782   12.923402
244  170  4    -2.9600   5.305574   4.395782   12.923402
245  171  3     0.9600   3.853530   6.648709   12.568326
246  171  4    -2.9600   3.853530   6.648709   12.568326
247  172  3     0.9600   2.591334   8.999464   12.570412
248  172  4    -2.9600   2.591334   8.999464   12.570412
249  173  3     0.9600   9.274674   2.050880   13.213560
250  173  4    -2.9600   9.274674   2.050880   13.213560
251  174  3     0.9600   7.634104   4.203941   12.985899
252  174  4    -2.9600   7.634104   4.203941   12.985899
253  175  3     0.9600   7.059641   6.914217   12.946623
254  175  4    -2.9600   7.059641   6.914217   12.946623
255  176  3     0.9600   5.972338   9.343004   13.017532
256  176  4    -2.9600   5.972338   9.343004   13.017532
257  177  3     0.9600   0.537234   0.392778   10.604951
258  177  4    -2.9600   0.537234   0.392778   10.604951
259  178  3     0.9600   10.258679   2.915511   10.541572
260  178  4    -2.9600   10.258679   2.915511   10.541572
261  179  3     0.9600  -1.685748   5.385350   10.616400
262  179  4    -2.9600  -1.685748   5.385350   10.616400
263  180  3     0.9600   8.117017   7.619378   10.373286
264  180  4    -2.9600   8.117017   7.619378   10.373286
265  181  3     0.9600   3.126369   0.571572   10.106447
266  181  4    -2.9600   3.126369   0.571572   10.106447
267  182  3     0.9600   2.053815   2.906993   10.384288
268  182  4    -2.9600   2.053815   2.906993   10.384288
269  183  3     0.9600   0.809794   5.154148   10.411092
270  183  4    -2.9600   0.809794   5.154148   10.411092
271  184  3     0.9600  -0.397483   7.498497   10.372502
272  184  4    -2.9600  -0.397483   7.498497   10.372502
273  185  3     0.9600   6.356214   0.397051   10.581044
274  185  4    -2.9600   6.356214   0.397051   10.581044
275  186  3     0.9600   5.083907   2.677499   10.403954
276  186  4    -2.9600   5.083907   2.677499   10.403954
277  187  3     0.9600   3.642793   5.031039   10.270898
278  187  4    -2.9600   3.642793   5.031039   10.270898
279  188  3     0.9600   2.251152   7.548274   10.058703
280  188  4    -2.9600   2.251152   7.548274   10.058703
281  189  3     0.9600   9.022511   0.558196   10.400608
282  189  4    -2.9600   9.022511   0.558196   10.400608
283  190  3     0.9600   7.540535   2.861439   10.424669
284  190  4    -2.9600   7.540535   2.861439   10.424669
285  191  3     0.9600   6.445143   5.117691   10.365812
286  191  4    -2.9600   6.445143   5.117691   10.365812
287  192  3     0.9600   5.340500   7.708149   10.564065
288  192  4    -2.9600   5.340500   7.708149   10.564065

Bonds

1    1    97   98  
2    1    99   100 
3    1    101  102 
4    1    103  104 
5    1    105  106 
6    1    107  108 
7    1    109  110 
8    1    111  112 
9    1    113  114 
10   1    115  116 
11   1    117  118 
12   1    119  120 
13   1    121  122 
14   1    123  124 
15   1    125  126 
16   1    127  128 
17   1    129  130 
18   1    131  132 
19   1    133  134 
20   1    135  136 
21   1    137  138 
22   1    139  140 
23   1    141  142 
24   1    143  144 
25   1    145  146 
26   1    147  148 
27   1    149  150 
28   1    151  152 
29   1    153  154 
30   1    155  156 
31   1    157  158 
32   1    159  160 
33   1    161  162 
34   1    163  164 
35   1    165  166 
36   1    167  168 
37   1    169  170 
38   1    171  172 
39   1    173  174 
40   1    175  176 
41   1    177  178 
42   1    179  180 
43   1    181  182 
44   1    183  184 
45   1    185  186 
46   1    187  188 
47   1    189  190 
48   1    191  192 
49   1    193  194 
50   1    195  196 
51   1    197  198 
52   1    199  200 
53   1    201  202 
54   1    203  204 
55   1    205  206 
56   1    207  208 
57   1    209  210 
58   1    211  212 
59   1    213  214 
60   1    215  216 
61   1    217  218 
62   1    219  220 
63   1    221  222 
64   1    223  224 
65   1    225  226 
66   1    227  228 
67   1    229  230 
68   1    231  232 
69   1    233  234 
70   1    235  236 
71   1    237  238 
72   1    239  240 
73   1    241  242 
74   1    243  244 
75   1    245  246 
76   1    247  248 
77   1    249  250 
78   1    251  252 
79   1    253  254 
80   1    255  256 
81   1    257  258 
82   1    259  260 
83   1    261  262 
84   1    263  264 
85   1    265  266 
86   1    267  268 
87   1    269  270 
88   1    271  272 
89   1    273  274 
90   1    275  276 
91   1    277  278 
92   1    279  280 
93   1    281  282 
94   1    283  284 
95   1    285  286 
96   1    287  288 

