title

2304   atoms
768   bonds

4   atom types
1   bond types


0.0 21.831472 xlo xhi
0.0 20.121716 ylo yhi
0.0 28.105434 zlo zhi

0.00000 0.00000 0.00000 xy xz yz 

Masses

1   6.94100 # Li
2  58.69340 # Ni
3  14.39910 # O core
4   1.59990 # O shell

Atoms

1    1    1     1.0000   2.618038   1.325778   2.258082
2    2    1     1.0000   2.618038   1.325778   16.310799
3    3    1     1.0000   2.618038   11.386636   2.258082
4    4    1     1.0000   2.618038   11.386636   16.310799
5    5    1     1.0000   13.533775   1.325778   2.258082
6    6    1     1.0000   13.533775   1.325778   16.310799
7    7    1     1.0000   13.533775   11.386636   2.258082
8    8    1     1.0000   13.533775   11.386636   16.310799
9    9    1     1.0000   2.967361   6.552748   2.375813
10   10   1     1.0000   2.967361   6.552748   16.428529
11   11   1     1.0000   2.967361   16.613606   2.375813
12   12   1     1.0000   2.967361   16.613606   16.428529
13   13   1     1.0000   13.883098   6.552748   2.375813
14   14   1     1.0000   13.883098   6.552748   16.428529
15   15   1     1.0000   13.883098   16.613606   2.375813
16   16   1     1.0000   13.883098   16.613606   16.428529
17   17   1     1.0000   5.265312   1.734895   2.633837
18   18   1     1.0000   5.265312   1.734895   16.686554
19   19   1     1.0000   5.265312   11.795753   2.633837
20   20   1     1.0000   5.265312   11.795753   16.686554
21   21   1     1.0000   16.181048   1.734895   2.633837
22   22   1     1.0000   16.181048   1.734895   16.686554
23   23   1     1.0000   16.181048   11.795753   2.633837
24   24   1     1.0000   16.181048   11.795753   16.686554
25   25   1     1.0000   5.823187   6.585846   2.140384
26   26   1     1.0000   5.823187   6.585846   16.193101
27   27   1     1.0000   5.823187   16.646703   2.140384
28   28   1     1.0000   5.823187   16.646703   16.193101
29   29   1     1.0000   16.738923   6.585846   2.140384
30   30   1     1.0000   16.738923   6.585846   16.193101
31   31   1     1.0000   16.738923   16.646703   2.140384
32   32   1     1.0000   16.738923   16.646703   16.193101
33   33   1     1.0000   8.093073   1.395222   2.820602
34   34   1     1.0000   8.093073   1.395222   16.873319
35   35   1     1.0000   8.093073   11.456080   2.820602
36   36   1     1.0000   8.093073   11.456080   16.873319
37   37   1     1.0000   19.008810   1.395222   2.820602
38   38   1     1.0000   19.008810   1.395222   16.873319
39   39   1     1.0000   19.008810   11.456080   2.820602
40   40   1     1.0000   19.008810   11.456080   16.873319
41   41   1     1.0000   8.235282   6.271327   2.392261
42   42   1     1.0000   8.235282   6.271327   16.444978
43   43   1     1.0000   8.235282   16.332184   2.392261
44   44   1     1.0000   8.235282   16.332184   16.444978
45   45   1     1.0000   19.151018   6.271327   2.392261
46   46   1     1.0000   19.151018   6.271327   16.444978
47   47   1     1.0000   19.151018   16.332184   2.392261
48   48   1     1.0000   19.151018   16.332184   16.444978
49   49   1     1.0000   10.648818   1.221632   2.454224
50   50   1     1.0000   10.648818   1.221632   16.506941
51   51   1     1.0000   10.648818   11.282490   2.454224
52   52   1     1.0000   10.648818   11.282490   16.506941
53   53   1     1.0000   21.564555   1.221632   2.454224
54   54   1     1.0000   21.564555   1.221632   16.506941
55   55   1     1.0000   21.564555   11.282490   2.454224
56   56   1     1.0000   21.564555   11.282490   16.506941
57   57   1     1.0000   0.018834   6.344191   2.150257
58   58   1     1.0000   0.018834   6.344191   16.202974
59   59   1     1.0000   0.018834   16.405049   2.150257
60   60   1     1.0000   0.018834   16.405049   16.202974
61   61   1     1.0000   10.934570   6.344191   2.150257
62   62   1     1.0000   10.934570   6.344191   16.202974
63   63   1     1.0000   10.934570   16.405049   2.150257
64   64   1     1.0000   10.934570   16.405049   16.202974
65   65   1     1.0000   1.374220   3.887904   2.483909
66   66   1     1.0000   1.374220   3.887904   16.536626
67   67   1     1.0000   1.374220   13.948762   2.483909
68   68   1     1.0000   1.374220   13.948762   16.536626
69   69   1     1.0000   12.289956   3.887904   2.483909
70   70   1     1.0000   12.289956   3.887904   16.536626
71   71   1     1.0000   12.289956   13.948762   2.483909
72   72   1     1.0000   12.289956   13.948762   16.536626
73   73   1     1.0000   1.461827   8.939908   2.311526
74   74   1     1.0000   1.461827   8.939908   16.364243
75   75   1     1.0000   1.461827   19.000766   2.311526
76   76   1     1.0000   1.461827   19.000766   16.364243
77   77   1     1.0000   12.377564   8.939908   2.311526
78   78   1     1.0000   12.377564   8.939908   16.364243
79   79   1     1.0000   12.377564   19.000766   2.311526
80   80   1     1.0000   12.377564   19.000766   16.364243
81   81   1     1.0000   4.118494   4.233134   2.297019
82   82   1     1.0000   4.118494   4.233134   16.349736
83   83   1     1.0000   4.118494   14.293992   2.297019
84   84   1     1.0000   4.118494   14.293992   16.349736
85   85   1     1.0000   15.034231   4.233134   2.297019
86   86   1     1.0000   15.034231   4.233134   16.349736
87   87   1     1.0000   15.034231   14.293992   2.297019
88   88   1     1.0000   15.034231   14.293992   16.349736
89   89   1     1.0000   4.059921   9.031037   2.393829
90   90   1     1.0000   4.059921   9.031037   16.446546
91   91   1     1.0000   4.059921   19.091895   2.393829
92   92   1     1.0000   4.059921   19.091895   16.446546
93   93   1     1.0000   14.975657   9.031037   2.393829
94   94   1     1.0000   14.975657   9.031037   16.446546
95   95   1     1.0000   14.975657   19.091895   2.393829
96   96   1     1.0000   14.975657   19.091895   16.446546
97   97   1     1.0000   6.678108   3.827533   2.373805
98   98   1     1.0000   6.678108   3.827533   16.426522
99   99   1     1.0000   6.678108   13.888390   2.373805
100  100  1     1.0000   6.678108   13.888390   16.426522
101  101  1     1.0000   17.593844   3.827533   2.373805
102  102  1     1.0000   17.593844   3.827533   16.426522
103  103  1     1.0000   17.593844   13.888390   2.373805
104  104  1     1.0000   17.593844   13.888390   16.426522
105  105  1     1.0000   6.929713   9.040335   2.708401
106  106  1     1.0000   6.929713   9.040335   16.761118
107  107  1     1.0000   6.929713   19.101193   2.708401
108  108  1     1.0000   6.929713   19.101193   16.761118
109  109  1     1.0000   17.845449   9.040335   2.708401
110  110  1     1.0000   17.845449   9.040335   16.761118
111  111  1     1.0000   17.845449   19.101193   2.708401
112  112  1     1.0000   17.845449   19.101193   16.761118
113  113  1     1.0000   9.579440   3.641681   2.140665
114  114  1     1.0000   9.579440   3.641681   16.193382
115  115  1     1.0000   9.579440   13.702539   2.140665
116  116  1     1.0000   9.579440   13.702539   16.193382
117  117  1     1.0000   20.495177   3.641681   2.140665
118  118  1     1.0000   20.495177   3.641681   16.193382
119  119  1     1.0000   20.495177   13.702539   2.140665
120  120  1     1.0000   20.495177   13.702539   16.193382
121  121  1     1.0000   9.413925   8.721945   2.460925
122  122  1     1.0000   9.413925   8.721945   16.513642
123  123  1     1.0000   9.413925   18.782802   2.460925
124  124  1     1.0000   9.413925   18.782802   16.513642
125  125  1     1.0000   20.329661   8.721945   2.460925
126  126  1     1.0000   20.329661   8.721945   16.513642
127  127  1     1.0000   20.329661   18.782802   2.460925
128  128  1     1.0000   20.329661   18.782802   16.513642
129  129  1     1.0000   1.392989   0.610469   11.729468
130  130  1     1.0000   1.392989   0.610469   25.782185
131  131  1     1.0000   1.392989   10.671327   11.729468
132  132  1     1.0000   1.392989   10.671327   25.782185
133  133  1     1.0000   12.308726   0.610469   11.729468
134  134  1     1.0000   12.308726   0.610469   25.782185
135  135  1     1.0000   12.308726   10.671327   11.729468
136  136  1     1.0000   12.308726   10.671327   25.782185
137  137  1     1.0000   1.283002   5.471720   11.712361
138  138  1     1.0000   1.283002   5.471720   25.765078
139  139  1     1.0000   1.283002   15.532578   11.712361
140  140  1     1.0000   1.283002   15.532578   25.765078
141  141  1     1.0000   12.198738   5.471720   11.712361
142  142  1     1.0000   12.198738   5.471720   25.765078
143  143  1     1.0000   12.198738   15.532578   11.712361
144  144  1     1.0000   12.198738   15.532578   25.765078
145  145  1     1.0000   3.990509   0.671561   11.798043
146  146  1     1.0000   3.990509   0.671561   25.850760
147  147  1     1.0000   3.990509   10.732418   11.798043
148  148  1     1.0000   3.990509   10.732418   25.850760
149  149  1     1.0000   14.906245   0.671561   11.798043
150  150  1     1.0000   14.906245   0.671561   25.850760
151  151  1     1.0000   14.906245   10.732418   11.798043
152  152  1     1.0000   14.906245   10.732418   25.850760
153  153  1     1.0000   4.172431   5.558541   11.782651
154  154  1     1.0000   4.172431   5.558541   25.835368
155  155  1     1.0000   4.172431   15.619399   11.782651
156  156  1     1.0000   4.172431   15.619399   25.835368
157  157  1     1.0000   15.088167   5.558541   11.782651
158  158  1     1.0000   15.088167   5.558541   25.835368
159  159  1     1.0000   15.088167   15.619399   11.782651
160  160  1     1.0000   15.088167   15.619399   25.835368
161  161  1     1.0000   6.678856   0.315610   11.707696
162  162  1     1.0000   6.678856   0.315610   25.760413
163  163  1     1.0000   6.678856   10.376468   11.707696
164  164  1     1.0000   6.678856   10.376468   25.760413
165  165  1     1.0000   17.594593   0.315610   11.707696
166  166  1     1.0000   17.594593   0.315610   25.760413
167  167  1     1.0000   17.594593   10.376468   11.707696
168  168  1     1.0000   17.594593   10.376468   25.760413
169  169  1     1.0000   6.997528   5.546649   11.812522
170  170  1     1.0000   6.997528   5.546649   25.865239
171  171  1     1.0000   6.997528   15.607507   11.812522
172  172  1     1.0000   6.997528   15.607507   25.865239
173  173  1     1.0000   17.913264   5.546649   11.812522
174  174  1     1.0000   17.913264   5.546649   25.865239
175  175  1     1.0000   17.913264   15.607507   11.812522
176  176  1     1.0000   17.913264   15.607507   25.865239
177  177  1     1.0000   9.542978   0.244353   11.604701
178  178  1     1.0000   9.542978   0.244353   25.657418
179  179  1     1.0000   9.542978   10.305211   11.604701
180  180  1     1.0000   9.542978   10.305211   25.657418
181  181  1     1.0000   20.458714   0.244353   11.604701
182  182  1     1.0000   20.458714   0.244353   25.657418
183  183  1     1.0000   20.458714   10.305211   11.604701
184  184  1     1.0000   20.458714   10.305211   25.657418
185  185  1     1.0000   9.448841   5.429810   11.502008
186  186  1     1.0000   9.448841   5.429810   25.554725
187  187  1     1.0000   9.448841   15.490668   11.502008
188  188  1     1.0000   9.448841   15.490668   25.554725
189  189  1     1.0000   20.364577   5.429810   11.502008
190  190  1     1.0000   20.364577   5.429810   25.554725
191  191  1     1.0000   20.364577   15.490668   11.502008
192  192  1     1.0000   20.364577   15.490668   25.554725
193  193  1     1.0000   10.898691   2.904875   11.617353
194  194  1     1.0000   10.898691   2.904875   25.670069
195  195  1     1.0000   10.898691   12.965733   11.617353
196  196  1     1.0000   10.898691   12.965733   25.670069
197  197  1     1.0000   21.814427   2.904875   11.617353
198  198  1     1.0000   21.814427   2.904875   25.670069
199  199  1     1.0000   21.814427   12.965733   11.617353
200  200  1     1.0000   21.814427   12.965733   25.670069
201  201  1     1.0000   0.184717   7.770941   11.767631
202  202  1     1.0000   0.184717   7.770941   25.820348
203  203  1     1.0000   0.184717   17.831799   11.767631
204  204  1     1.0000   0.184717   17.831799   25.820348
205  205  1     1.0000   11.100453   7.770941   11.767631
206  206  1     1.0000   11.100453   7.770941   25.820348
207  207  1     1.0000   11.100453   17.831799   11.767631
208  208  1     1.0000   11.100453   17.831799   25.820348
209  209  1     1.0000   2.726142   3.305340   11.540529
210  210  1     1.0000   2.726142   3.305340   25.593246
211  211  1     1.0000   2.726142   13.366198   11.540529
212  212  1     1.0000   2.726142   13.366198   25.593246
213  213  1     1.0000   13.641878   3.305340   11.540529
214  214  1     1.0000   13.641878   3.305340   25.593246
215  215  1     1.0000   13.641878   13.366198   11.540529
216  216  1     1.0000   13.641878   13.366198   25.593246
217  217  1     1.0000   2.844069   7.857727   11.680676
218  218  1     1.0000   2.844069   7.857727   25.733393
219  219  1     1.0000   2.844069   17.918584   11.680676
220  220  1     1.0000   2.844069   17.918584   25.733393
221  221  1     1.0000   13.759805   7.857727   11.680676
222  222  1     1.0000   13.759805   7.857727   25.733393
223  223  1     1.0000   13.759805   17.918584   11.680676
224  224  1     1.0000   13.759805   17.918584   25.733393
225  225  1     1.0000   5.562805   3.010457   11.681429
226  226  1     1.0000   5.562805   3.010457   25.734146
227  227  1     1.0000   5.562805   13.071314   11.681429
228  228  1     1.0000   5.562805   13.071314   25.734146
229  229  1     1.0000   16.478541   3.010457   11.681429
230  230  1     1.0000   16.478541   3.010457   25.734146
231  231  1     1.0000   16.478541   13.071314   11.681429
232  232  1     1.0000   16.478541   13.071314   25.734146
233  233  1     1.0000   5.608119   7.904295   11.920512
234  234  1     1.0000   5.608119   7.904295   25.973229
235  235  1     1.0000   5.608119   17.965153   11.920512
236  236  1     1.0000   5.608119   17.965153   25.973229
237  237  1     1.0000   16.523855   7.904295   11.920512
238  238  1     1.0000   16.523855   7.904295   25.973229
239  239  1     1.0000   16.523855   17.965153   11.920512
240  240  1     1.0000   16.523855   17.965153   25.973229
241  241  1     1.0000   7.867394   3.008185   11.945766
242  242  1     1.0000   7.867394   3.008185   25.998483
243  243  1     1.0000   7.867394   13.069043   11.945766
244  244  1     1.0000   7.867394   13.069043   25.998483
245  245  1     1.0000   18.783130   3.008185   11.945766
246  246  1     1.0000   18.783130   3.008185   25.998483
247  247  1     1.0000   18.783130   13.069043   11.945766
248  248  1     1.0000   18.783130   13.069043   25.998483
249  249  1     1.0000   8.244926   8.014130   11.799517
250  250  1     1.0000   8.244926   8.014130   25.852234
251  251  1     1.0000   8.244926   18.074987   11.799517
252  252  1     1.0000   8.244926   18.074987   25.852234
253  253  1     1.0000   19.160662   8.014130   11.799517
254  254  1     1.0000   19.160662   8.014130   25.852234
255  255  1     1.0000   19.160662   18.074987   11.799517
256  256  1     1.0000   19.160662   18.074987   25.852234
257  257  1     1.0000   0.135692   4.823701   7.192435
258  258  1     1.0000   0.135692   4.823701   21.245152
259  259  1     1.0000   0.135692   14.884558   7.192435
260  260  1     1.0000   0.135692   14.884558   21.245152
261  261  1     1.0000   11.051428   4.823701   7.192435
262  262  1     1.0000   11.051428   4.823701   21.245152
263  263  1     1.0000   11.051428   14.884558   7.192435
264  264  1     1.0000   11.051428   14.884558   21.245152
265  265  1     1.0000   10.615214   9.729016   6.927515
266  266  1     1.0000   10.615214   9.729016   20.980232
267  267  1     1.0000   10.615214   19.789874   6.927515
268  268  1     1.0000   10.615214   19.789874   20.980232
269  269  1     1.0000   21.530950   9.729016   6.927515
270  270  1     1.0000   21.530950   9.729016   20.980232
271  271  1     1.0000   21.530950   19.789874   6.927515
272  272  1     1.0000   21.530950   19.789874   20.980232
273  273  1     1.0000   2.691665   4.889772   6.964810
274  274  1     1.0000   2.691665   4.889772   21.017527
275  275  1     1.0000   2.691665   14.950630   6.964810
276  276  1     1.0000   2.691665   14.950630   21.017527
277  277  1     1.0000   13.607401   4.889772   6.964810
278  278  1     1.0000   13.607401   4.889772   21.017527
279  279  1     1.0000   13.607401   14.950630   6.964810
280  280  1     1.0000   13.607401   14.950630   21.017527
281  281  1     1.0000   2.591270   9.540615   6.899206
282  282  1     1.0000   2.591270   9.540615   20.951923
283  283  1     1.0000   2.591270   19.601472   6.899206
284  284  1     1.0000   2.591270   19.601472   20.951923
285  285  1     1.0000   13.507006   9.540615   6.899206
286  286  1     1.0000   13.507006   9.540615   20.951923
287  287  1     1.0000   13.507006   19.601472   6.899206
288  288  1     1.0000   13.507006   19.601472   20.951923
289  289  1     1.0000   5.564650   4.689241   7.057754
290  290  1     1.0000   5.564650   4.689241   21.110471
291  291  1     1.0000   5.564650   14.750099   7.057754
292  292  1     1.0000   5.564650   14.750099   21.110471
293  293  1     1.0000   16.480387   4.689241   7.057754
294  294  1     1.0000   16.480387   4.689241   21.110471
295  295  1     1.0000   16.480387   14.750099   7.057754
296  296  1     1.0000   16.480387   14.750099   21.110471
297  297  1     1.0000   5.730187   9.757509   7.044522
298  298  1     1.0000   5.730187   9.757509   21.097239
299  299  1     1.0000   5.730187   19.818367   7.044522
300  300  1     1.0000   5.730187   19.818367   21.097239
301  301  1     1.0000   16.645923   9.757509   7.044522
302  302  1     1.0000   16.645923   9.757509   21.097239
303  303  1     1.0000   16.645923   19.818367   7.044522
304  304  1     1.0000   16.645923   19.818367   21.097239
305  305  1     1.0000   8.348543   4.532973   6.896656
306  306  1     1.0000   8.348543   4.532973   20.949372
307  307  1     1.0000   8.348543   14.593830   6.896656
308  308  1     1.0000   8.348543   14.593830   20.949372
309  309  1     1.0000   19.264279   4.532973   6.896656
310  310  1     1.0000   19.264279   4.532973   20.949372
311  311  1     1.0000   19.264279   14.593830   6.896656
312  312  1     1.0000   19.264279   14.593830   20.949372
313  313  1     1.0000   8.222690   9.857248   7.007580
314  314  1     1.0000   8.222690   9.857248   21.060297
315  315  1     1.0000   8.222690   19.918106   7.007580
316  316  1     1.0000   8.222690   19.918106   21.060297
317  317  1     1.0000   19.138427   9.857248   7.007580
318  318  1     1.0000   19.138427   9.857248   21.060297
319  319  1     1.0000   19.138427   19.918106   7.007580
320  320  1     1.0000   19.138427   19.918106   21.060297
321  321  1     1.0000   1.278852   2.057761   7.169992
322  322  1     1.0000   1.278852   2.057761   21.222708
323  323  1     1.0000   1.278852   12.118619   7.169992
324  324  1     1.0000   1.278852   12.118619   21.222708
325  325  1     1.0000   12.194588   2.057761   7.169992
326  326  1     1.0000   12.194588   2.057761   21.222708
327  327  1     1.0000   12.194588   12.118619   7.169992
328  328  1     1.0000   12.194588   12.118619   21.222708
329  329  1     1.0000   1.430895   7.054394   6.891237
330  330  1     1.0000   1.430895   7.054394   20.943954
331  331  1     1.0000   1.430895   17.115252   6.891237
332  332  1     1.0000   1.430895   17.115252   20.943954
333  333  1     1.0000   12.346631   7.054394   6.891237
334  334  1     1.0000   12.346631   7.054394   20.943954
335  335  1     1.0000   12.346631   17.115252   6.891237
336  336  1     1.0000   12.346631   17.115252   20.943954
337  337  1     1.0000   4.168058   2.317747   6.819177
338  338  1     1.0000   4.168058   2.317747   20.871893
339  339  1     1.0000   4.168058   12.378604   6.819177
340  340  1     1.0000   4.168058   12.378604   20.871893
341  341  1     1.0000   15.083794   2.317747   6.819177
342  342  1     1.0000   15.083794   2.317747   20.871893
343  343  1     1.0000   15.083794   12.378604   6.819177
344  344  1     1.0000   15.083794   12.378604   20.871893
345  345  1     1.0000   4.479987   6.916491   7.471446
346  346  1     1.0000   4.479987   6.916491   21.524162
347  347  1     1.0000   4.479987   16.977349   7.471446
348  348  1     1.0000   4.479987   16.977349   21.524162
349  349  1     1.0000   15.395723   6.916491   7.471446
350  350  1     1.0000   15.395723   6.916491   21.524162
351  351  1     1.0000   15.395723   16.977349   7.471446
352  352  1     1.0000   15.395723   16.977349   21.524162
353  353  1     1.0000   6.593748   2.098222   7.096878
354  354  1     1.0000   6.593748   2.098222   21.149595
355  355  1     1.0000   6.593748   12.159080   7.096878
356  356  1     1.0000   6.593748   12.159080   21.149595
357  357  1     1.0000   17.509484   2.098222   7.096878
358  358  1     1.0000   17.509484   2.098222   21.149595
359  359  1     1.0000   17.509484   12.159080   7.096878
360  360  1     1.0000   17.509484   12.159080   21.149595
361  361  1     1.0000   7.156993   7.421142   6.967717
362  362  1     1.0000   7.156993   7.421142   21.020434
363  363  1     1.0000   7.156993   17.482000   6.967717
364  364  1     1.0000   7.156993   17.482000   21.020434
365  365  1     1.0000   18.072729   7.421142   6.967717
366  366  1     1.0000   18.072729   7.421142   21.020434
367  367  1     1.0000   18.072729   17.482000   6.967717
368  368  1     1.0000   18.072729   17.482000   21.020434
369  369  1     1.0000   9.420277   2.266316   6.773976
370  370  1     1.0000   9.420277   2.266316   20.826693
371  371  1     1.0000   9.420277   12.327173   6.773976
372  372  1     1.0000   9.420277   12.327173   20.826693
373  373  1     1.0000   20.336013   2.266316   6.773976
374  374  1     1.0000   20.336013   2.266316   20.826693
375  375  1     1.0000   20.336013   12.327173   6.773976
376  376  1     1.0000   20.336013   12.327173   20.826693
377  377  1     1.0000   9.710770   7.216374   6.886779
378  378  1     1.0000   9.710770   7.216374   20.939496
379  379  1     1.0000   9.710770   17.277232   6.886779
380  380  1     1.0000   9.710770   17.277232   20.939496
381  381  1     1.0000   20.626506   7.216374   6.886779
382  382  1     1.0000   20.626506   7.216374   20.939496
383  383  1     1.0000   20.626506   17.277232   6.886779
384  384  1     1.0000   20.626506   17.277232   20.939496
385  385  2     3.0000   0.227551   4.453417   13.931622
386  386  2     3.0000   0.227551   4.453417   27.984338
387  387  2     3.0000   0.227551   14.514275   13.931622
388  388  2     3.0000   0.227551   14.514275   27.984338
389  389  2     3.0000   11.143287   4.453417   13.931622
390  390  2     3.0000   11.143287   4.453417   27.984338
391  391  2     3.0000   11.143287   14.514275   13.931622
392  392  2     3.0000   11.143287   14.514275   27.984338
393  393  2     3.0000   10.858456   9.602854   14.027851
394  394  2     3.0000   10.858456   9.602854   28.080568
395  395  2     3.0000   10.858456   19.663711   14.027851
396  396  2     3.0000   10.858456   19.663711   28.080568
397  397  2     3.0000   21.774192   9.602854   14.027851
398  398  2     3.0000   21.774192   9.602854   28.080568
399  399  2     3.0000   21.774192   19.663711   14.027851
400  400  2     3.0000   21.774192   19.663711   28.080568
401  401  2     3.0000   2.676075   4.642457   0.068040
402  402  2     3.0000   2.676075   4.642457   14.120757
403  403  2     3.0000   2.676075   14.703315   0.068040
404  404  2     3.0000   2.676075   14.703315   14.120757
405  405  2     3.0000   13.591812   4.642457   0.068040
406  406  2     3.0000   13.591812   4.642457   14.120757
407  407  2     3.0000   13.591812   14.703315   0.068040
408  408  2     3.0000   13.591812   14.703315   14.120757
409  409  2     3.0000   2.607351   9.610059   13.834729
410  410  2     3.0000   2.607351   9.610059   27.887446
411  411  2     3.0000   2.607351   19.670917   13.834729
412  412  2     3.0000   2.607351   19.670917   27.887446
413  413  2     3.0000   13.523087   9.610059   13.834729
414  414  2     3.0000   13.523087   9.610059   27.887446
415  415  2     3.0000   13.523087   19.670917   13.834729
416  416  2     3.0000   13.523087   19.670917   27.887446
417  417  2     3.0000   5.529035   4.645766   13.928903
418  418  2     3.0000   5.529035   4.645766   27.981620
419  419  2     3.0000   5.529035   14.706624   13.928903
420  420  2     3.0000   5.529035   14.706624   27.981620
421  421  2     3.0000   16.444771   4.645766   13.928903
422  422  2     3.0000   16.444771   4.645766   27.981620
423  423  2     3.0000   16.444771   14.706624   13.928903
424  424  2     3.0000   16.444771   14.706624   27.981620
425  425  2     3.0000   5.433800   9.816177   13.956921
426  426  2     3.0000   5.433800   9.816177   28.009638
427  427  2     3.0000   5.433800   19.877035   13.956921
428  428  2     3.0000   5.433800   19.877035   28.009638
429  429  2     3.0000   16.349537   9.816177   13.956921
430  430  2     3.0000   16.349537   9.816177   28.009638
431  431  2     3.0000   16.349537   19.877035   13.956921
432  432  2     3.0000   16.349537   19.877035   28.009638
433  433  2     3.0000   8.265376   4.644094   13.986155
434  434  2     3.0000   8.265376   4.644094   28.038872
435  435  2     3.0000   8.265376   14.704952   13.986155
436  436  2     3.0000   8.265376   14.704952   28.038872
437  437  2     3.0000   19.181112   4.644094   13.986155
438  438  2     3.0000   19.181112   4.644094   28.038872
439  439  2     3.0000   19.181112   14.704952   13.986155
440  440  2     3.0000   19.181112   14.704952   28.038872
441  441  2     3.0000   8.282470   9.853960   14.018104
442  442  2     3.0000   8.282470   9.853960   28.070821
443  443  2     3.0000   8.282470   19.914818   14.018104
444  444  2     3.0000   8.282470   19.914818   28.070821
445  445  2     3.0000   19.198206   9.853960   14.018104
446  446  2     3.0000   19.198206   9.853960   28.070821
447  447  2     3.0000   19.198206   19.914818   14.018104
448  448  2     3.0000   19.198206   19.914818   28.070821
449  449  2     3.0000   1.168021   2.053245   13.951670
450  450  2     3.0000   1.168021   2.053245   28.004387
451  451  2     3.0000   1.168021   12.114103   13.951670
452  452  2     3.0000   1.168021   12.114103   28.004387
453  453  2     3.0000   12.083758   2.053245   13.951670
454  454  2     3.0000   12.083758   2.053245   28.004387
455  455  2     3.0000   12.083758   12.114103   13.951670
456  456  2     3.0000   12.083758   12.114103   28.004387
457  457  2     3.0000   1.343425   7.041189   14.037823
458  458  2     3.0000   1.343425   7.041189   28.090539
459  459  2     3.0000   1.343425   17.102047   14.037823
460  460  2     3.0000   1.343425   17.102047   28.090539
461  461  2     3.0000   12.259162   7.041189   14.037823
462  462  2     3.0000   12.259162   7.041189   28.090539
463  463  2     3.0000   12.259162   17.102047   14.037823
464  464  2     3.0000   12.259162   17.102047   28.090539
465  465  2     3.0000   4.056081   2.247374   13.993487
466  466  2     3.0000   4.056081   2.247374   28.046203
467  467  2     3.0000   4.056081   12.308232   13.993487
468  468  2     3.0000   4.056081   12.308232   28.046203
469  469  2     3.0000   14.971817   2.247374   13.993487
470  470  2     3.0000   14.971817   2.247374   28.046203
471  471  2     3.0000   14.971817   12.308232   13.993487
472  472  2     3.0000   14.971817   12.308232   28.046203
473  473  2     3.0000   4.134927   7.119661   0.128538
474  474  2     3.0000   4.134927   7.119661   14.181255
475  475  2     3.0000   4.134927   17.180519   0.128538
476  476  2     3.0000   4.134927   17.180519   14.181255
477  477  2     3.0000   15.050663   7.119661   0.128538
478  478  2     3.0000   15.050663   7.119661   14.181255
479  479  2     3.0000   15.050663   17.180519   0.128538
480  480  2     3.0000   15.050663   17.180519   14.181255
481  481  2     3.0000   6.766684   2.075508   0.093631
482  482  2     3.0000   6.766684   2.075508   14.146348
483  483  2     3.0000   6.766684   12.136366   0.093631
484  484  2     3.0000   6.766684   12.136366   14.146348
485  485  2     3.0000   17.682420   2.075508   0.093631
486  486  2     3.0000   17.682420   2.075508   14.146348
487  487  2     3.0000   17.682420   12.136366   0.093631
488  488  2     3.0000   17.682420   12.136366   14.146348
489  489  2     3.0000   6.974028   7.286081   14.021506
490  490  2     3.0000   6.974028   7.286081   28.074223
491  491  2     3.0000   6.974028   17.346938   14.021506
492  492  2     3.0000   6.974028   17.346938   28.074223
493  493  2     3.0000   17.889765   7.286081   14.021506
494  494  2     3.0000   17.889765   7.286081   28.074223
495  495  2     3.0000   17.889765   17.346938   14.021506
496  496  2     3.0000   17.889765   17.346938   28.074223
497  497  2     3.0000   9.411174   2.079693   14.045889
498  498  2     3.0000   9.411174   2.079693   28.098606
499  499  2     3.0000   9.411174   12.140551   14.045889
500  500  2     3.0000   9.411174   12.140551   28.098606
501  501  2     3.0000   20.326910   2.079693   14.045889
502  502  2     3.0000   20.326910   2.079693   28.098606
503  503  2     3.0000   20.326910   12.140551   14.045889
504  504  2     3.0000   20.326910   12.140551   28.098606
505  505  2     3.0000   9.366730   7.317459   0.013676
506  506  2     3.0000   9.366730   7.317459   14.066393
507  507  2     3.0000   9.366730   17.378317   0.013676
508  508  2     3.0000   9.366730   17.378317   14.066393
509  509  2     3.0000   20.282466   7.317459   0.013676
510  510  2     3.0000   20.282466   7.317459   14.066393
511  511  2     3.0000   20.282466   17.378317   0.013676
512  512  2     3.0000   20.282466   17.378317   14.066393
513  513  2     3.0000   1.397959   0.634290   4.679380
514  514  2     3.0000   1.397959   0.634290   18.732097
515  515  2     3.0000   1.397959   10.695148   4.679380