title

2304   atoms
768   bonds

4   atom types
1   bond types


0.0 21.831472 xlo xhi
0.0 20.121716 ylo yhi
0.0 28.105434 zlo zhi

0.00000 0.00000 0.00000 xy xz yz 

Masses

1   6.94100 # Li
2  58.69340 # Ni
3  14.39910 # O core
4   1.59990 # O shell

Atoms

1    1    1     1.0000   2.724471   1.352560   2.342683
2    2    1     1.0000   2.724471   1.352560   16.395400
3    3    1     1.0000   2.724471   6.382989   2.342683
4    4    1     1.0000   2.724471   6.382989   16.395400
5    5    1     1.0000   2.724471   11.413418   2.342683
6    6    1     1.0000   2.724471   11.413418   16.395400
7    7    1     1.0000   2.724471   16.443846   2.342683
8    8    1     1.0000   2.724471   16.443846   16.395400
9    9    1     1.0000   5.453405   1.352560   2.342683
10   10   1     1.0000   5.453405   1.352560   16.395400
11   11   1     1.0000   5.453405   6.382989   2.342683
12   12   1     1.0000   5.453405   6.382989   16.395400
13   13   1     1.0000   5.453405   11.413418   2.342683
14   14   1     1.0000   5.453405   11.413418   16.395400
15   15   1     1.0000   5.453405   16.443846   2.342683
16   16   1     1.0000   5.453405   16.443846   16.395400
17   17   1     1.0000   8.182339   1.352560   2.342683
18   18   1     1.0000   8.182339   1.352560   16.395400
19   19   1     1.0000   8.182339   6.382989   2.342683
20   20   1     1.0000   8.182339   6.382989   16.395400
21   21   1     1.0000   8.182339   11.413418   2.342683
22   22   1     1.0000   8.182339   11.413418   16.395400
23   23   1     1.0000   8.182339   16.443846   2.342683
24   24   1     1.0000   8.182339   16.443846   16.395400
25   25   1     1.0000   10.911273   1.352560   2.342683
26   26   1     1.0000   10.911273   1.352560   16.395400
27   27   1     1.0000   10.911273   6.382989   2.342683
28   28   1     1.0000   10.911273   6.382989   16.395400
29   29   1     1.0000   10.911273   11.413418   2.342683
30   30   1     1.0000   10.911273   11.413418   16.395400
31   31   1     1.0000   10.911273   16.443846   2.342683
32   32   1     1.0000   10.911273   16.443846   16.395400
33   33   1     1.0000   13.640207   1.352560   2.342683
34   34   1     1.0000   13.640207   1.352560   16.395400
35   35   1     1.0000   13.640207   6.382989   2.342683
36   36   1     1.0000   13.640207   6.382989   16.395400
37   37   1     1.0000   13.640207   11.413418   2.342683
38   38   1     1.0000   13.640207   11.413418   16.395400
39   39   1     1.0000   13.640207   16.443846   2.342683
40   40   1     1.0000   13.640207   16.443846   16.395400
41   41   1     1.0000   16.369141   1.352560   2.342683
42   42   1     1.0000   16.369141   1.352560   16.395400
43   43   1     1.0000   16.369141   6.382989   2.342683
44   44   1     1.0000   16.369141   6.382989   16.395400
45   45   1     1.0000   16.369141   11.413418   2.342683
46   46   1     1.0000   16.369141   11.413418   16.395400
47   47   1     1.0000   16.369141   16.443846   2.342683
48   48   1     1.0000   16.369141   16.443846   16.395400
49   49   1     1.0000   19.098075   1.352560   2.342683
50   50   1     1.0000   19.098075   1.352560   16.395400
51   51   1     1.0000   19.098075   6.382989   2.342683
52   52   1     1.0000   19.098075   6.382989   16.395400
53   53   1     1.0000   19.098075   11.413418   2.342683
54   54   1     1.0000   19.098075   11.413418   16.395400
55   55   1     1.0000   19.098075   16.443846   2.342683
56   56   1     1.0000   19.098075   16.443846   16.395400
57   57   1     1.0000   21.827009   1.352560   2.342683
58   58   1     1.0000   21.827009   1.352560   16.395400
59   59   1     1.0000   21.827009   6.382989   2.342683
60   60   1     1.0000   21.827009   6.382989   16.395400
61   61   1     1.0000   21.827009   11.413418   2.342683
62   62   1     1.0000   21.827009   11.413418   16.395400
63   63   1     1.0000   21.827009   16.443846   2.342683
64   64   1     1.0000   21.827009   16.443846   16.395400
65   65   1     1.0000   1.409864   3.566019   1.499262
66   66   1     1.0000   1.409864   3.566019   15.551978
67   67   1     1.0000   1.409864   8.596448   1.499262
68   68   1     1.0000   1.409864   8.596448   15.551978
69   69   1     1.0000   1.409864   13.626877   1.499262
70   70   1     1.0000   1.409864   13.626877   15.551978
71   71   1     1.0000   1.409864   18.657306   1.499262
72   72   1     1.0000   1.409864   18.657306   15.551978
73   73   1     1.0000   4.138798   3.566019   1.499262
74   74   1     1.0000   4.138798   3.566019   15.551978
75   75   1     1.0000   4.138798   8.596448   1.499262
76   76   1     1.0000   4.138798   8.596448   15.551978
77   77   1     1.0000   4.138798   13.626877   1.499262
78   78   1     1.0000   4.138798   13.626877   15.551978
79   79   1     1.0000   4.138798   18.657306   1.499262
80   80   1     1.0000   4.138798   18.657306   15.551978
81   81   1     1.0000   6.867733   3.566019   1.499262
82   82   1     1.0000   6.867733   3.566019   15.551978
83   83   1     1.0000   6.867733   8.596448   1.499262
84   84   1     1.0000   6.867733   8.596448   15.551978
85   85   1     1.0000   6.867733   13.626877   1.499262
86   86   1     1.0000   6.867733   13.626877   15.551978
87   87   1     1.0000   6.867733   18.657306   1.499262
88   88   1     1.0000   6.867733   18.657306   15.551978
89   89   1     1.0000   9.596667   3.566019   1.499262
90   90   1     1.0000   9.596667   3.566019   15.551978
91   91   1     1.0000   9.596667   8.596448   1.499262
92   92   1     1.0000   9.596667   8.596448   15.551978
93   93   1     1.0000   9.596667   13.626877   1.499262
94   94   1     1.0000   9.596667   13.626877   15.551978
95   95   1     1.0000   9.596667   18.657306   1.499262
96   96   1     1.0000   9.596667   18.657306   15.551978
97   97   1     1.0000   12.325601   3.566019   1.499262
98   98   1     1.0000   12.325601   3.566019   15.551978
99   99   1     1.0000   12.325601   8.596448   1.499262
100  100  1     1.0000   12.325601   8.596448   15.551978
101  101  1     1.0000   12.325601   13.626877   1.499262
102  102  1     1.0000   12.325601   13.626877   15.551978
103  103  1     1.0000   12.325601   18.657306   1.499262
104  104  1     1.0000   12.325601   18.657306   15.551978
105  105  1     1.0000   15.054535   3.566019   1.499262
106  106  1     1.0000   15.054535   3.566019   15.551978
107  107  1     1.0000   15.054535   8.596448   1.499262
108  108  1     1.0000   15.054535   8.596448   15.551978
109  109  1     1.0000   15.054535   13.626877   1.499262
110  110  1     1.0000   15.054535   13.626877   15.551978
111  111  1     1.0000   15.054535   18.657306   1.499262
112  112  1     1.0000   15.054535   18.657306   15.551978
113  113  1     1.0000   17.783469   3.566019   1.499262
114  114  1     1.0000   17.783469   3.566019   15.551978
115  115  1     1.0000   17.783469   8.596448   1.499262
116  116  1     1.0000   17.783469   8.596448   15.551978
117  117  1     1.0000   17.783469   13.626877   1.499262
118  118  1     1.0000   17.783469   13.626877   15.551978
119  119  1     1.0000   17.783469   18.657306   1.499262
120  120  1     1.0000   17.783469   18.657306   15.551978
121  121  1     1.0000   20.512403   3.566019   1.499262
122  122  1     1.0000   20.512403   3.566019   15.551978
123  123  1     1.0000   20.512403   8.596448   1.499262
124  124  1     1.0000   20.512403   8.596448   15.551978
125  125  1     1.0000   20.512403   13.626877   1.499262
126  126  1     1.0000   20.512403   13.626877   15.551978
127  127  1     1.0000   20.512403   18.657306   1.499262
128  128  1     1.0000   20.512403   18.657306   15.551978
129  129  1     1.0000   1.373417   0.504156   11.710470
130  130  1     1.0000   1.373417   0.504156   25.763187
131  131  1     1.0000   1.373417   5.534585   11.710470
132  132  1     1.0000   1.373417   5.534585   25.763187
133  133  1     1.0000   1.373417   10.565013   11.710470
134  134  1     1.0000   1.373417   10.565013   25.763187
135  135  1     1.0000   1.373417   15.595442   11.710470
136  136  1     1.0000   1.373417   15.595442   25.763187
137  137  1     1.0000   4.102351   0.504156   11.710470
138  138  1     1.0000   4.102351   0.504156   25.763187
139  139  1     1.0000   4.102351   5.534585   11.710470
140  140  1     1.0000   4.102351   5.534585   25.763187
141  141  1     1.0000   4.102351   10.565013   11.710470
142  142  1     1.0000   4.102351   10.565013   25.763187
143  143  1     1.0000   4.102351   15.595442   11.710470
144  144  1     1.0000   4.102351   15.595442   25.763187
145  145  1     1.0000   6.831285   0.504156   11.710470
146  146  1     1.0000   6.831285   0.504156   25.763187
147  147  1     1.0000   6.831285   5.534585   11.710470
148  148  1     1.0000   6.831285   5.534585   25.763187
149  149  1     1.0000   6.831285   10.565013   11.710470
150  150  1     1.0000   6.831285   10.565013   25.763187
151  151  1     1.0000   6.831285   15.595442   11.710470
152  152  1     1.0000   6.831285   15.595442   25.763187
153  153  1     1.0000   9.560220   0.504156   11.710470
154  154  1     1.0000   9.560220   0.504156   25.763187
155  155  1     1.0000   9.560220   5.534585   11.710470
156  156  1     1.0000   9.560220   5.534585   25.763187
157  157  1     1.0000   9.560220   10.565013   11.710470
158  158  1     1.0000   9.560220   10.565013   25.763187
159  159  1     1.0000   9.560220   15.595442   11.710470
160  160  1     1.0000   9.560220   15.595442   25.763187
161  161  1     1.0000   12.289154   0.504156   11.710470
162  162  1     1.0000   12.289154   0.504156   25.763187
163  163  1     1.0000   12.289154   5.534585   11.710470
164  164  1     1.0000   12.289154   5.534585   25.763187
165  165  1     1.0000   12.289154   10.565013   11.710470
166  166  1     1.0000   12.289154   10.565013   25.763187
167  167  1     1.0000   12.289154   15.595442   11.710470
168  168  1     1.0000   12.289154   15.595442   25.763187
169  169  1     1.0000   15.018088   0.504156   11.710470
170  170  1     1.0000   15.018088   0.504156   25.763187
171  171  1     1.0000   15.018088   5.534585   11.710470
172  172  1     1.0000   15.018088   5.534585   25.763187
173  173  1     1.0000   15.018088   10.565013   11.710470
174  174  1     1.0000   15.018088   10.565013   25.763187
175  175  1     1.0000   15.018088   15.595442   11.710470
176  176  1     1.0000   15.018088   15.595442   25.763187
177  177  1     1.0000   17.747022   0.504156   11.710470
178  178  1     1.0000   17.747022   0.504156   25.763187
179  179  1     1.0000   17.747022   5.534585   11.710470
180  180  1     1.0000   17.747022   5.534585   25.763187
181  181  1     1.0000   17.747022   10.565013   11.710470
182  182  1     1.0000   17.747022   10.565013   25.763187
183  183  1     1.0000   17.747022   15.595442   11.710470
184  184  1     1.0000   17.747022   15.595442   25.763187
185  185  1     1.0000   20.475956   0.504156   11.710470
186  186  1     1.0000   20.475956   0.504156   25.763187
187  187  1     1.0000   20.475956   5.534585   11.710470
188  188  1     1.0000   20.475956   5.534585   25.763187
189  189  1     1.0000   20.475956   10.565013   11.710470
190  190  1     1.0000   20.475956   10.565013   25.763187
191  191  1     1.0000   20.475956   15.595442   11.710470
192  192  1     1.0000   20.475956   15.595442   25.763187
193  193  1     1.0000   0.004201   3.019358   11.710120
194  194  1     1.0000   0.004201   3.019358   25.762837
195  195  1     1.0000   0.004201   8.049787   11.710120
196  196  1     1.0000   0.004201   8.049787   25.762837
197  197  1     1.0000   0.004201   13.080215   11.710120
198  198  1     1.0000   0.004201   13.080215   25.762837
199  199  1     1.0000   0.004201   18.110644   11.710120
200  200  1     1.0000   0.004201   18.110644   25.762837
201  201  1     1.0000   2.733135   3.019358   11.710120
202  202  1     1.0000   2.733135   3.019358   25.762837
203  203  1     1.0000   2.733135   8.049787   11.710120
204  204  1     1.0000   2.733135   8.049787   25.762837
205  205  1     1.0000   2.733135   13.080215   11.710120
206  206  1     1.0000   2.733135   13.080215   25.762837
207  207  1     1.0000   2.733135   18.110644   11.710120
208  208  1     1.0000   2.733135   18.110644   25.762837
209  209  1     1.0000   5.462069   3.019358   11.710120
210  210  1     1.0000   5.462069   3.019358   25.762837
211  211  1     1.0000   5.462069   8.049787   11.710120
212  212  1     1.0000   5.462069   8.049787   25.762837
213  213  1     1.0000   5.462069   13.080215   11.710120
214  214  1     1.0000   5.462069   13.080215   25.762837
215  215  1     1.0000   5.462069   18.110644   11.710120
216  216  1     1.0000   5.462069   18.110644   25.762837
217  217  1     1.0000   8.191004   3.019358   11.710120
218  218  1     1.0000   8.191004   3.019358   25.762837
219  219  1     1.0000   8.191004   8.049787   11.710120
220  220  1     1.0000   8.191004   8.049787   25.762837
221  221  1     1.0000   8.191004   13.080215   11.710120
222  222  1     1.0000   8.191004   13.080215   25.762837
223  223  1     1.0000   8.191004   18.110644   11.710120
224  224  1     1.0000   8.191004   18.110644   25.762837
225  225  1     1.0000   10.919938   3.019358   11.710120
226  226  1     1.0000   10.919938   3.019358   25.762837
227  227  1     1.0000   10.919938   8.049787   11.710120
228  228  1     1.0000   10.919938   8.049787   25.762837
229  229  1     1.0000   10.919938   13.080215   11.710120
230  230  1     1.0000   10.919938   13.080215   25.762837
231  231  1     1.0000   10.919938   18.110644   11.710120
232  232  1     1.0000   10.919938   18.110644   25.762837
233  233  1     1.0000   13.648872   3.019358   11.710120
234  234  1     1.0000   13.648872   3.019358   25.762837
235  235  1     1.0000   13.648872   8.049787   11.710120
236  236  1     1.0000   13.648872   8.049787   25.762837
237  237  1     1.0000   13.648872   13.080215   11.710120
238  238  1     1.0000   13.648872   13.080215   25.762837
239  239  1     1.0000   13.648872   18.110644   11.710120
240  240  1     1.0000   13.648872   18.110644   25.762837
241  241  1     1.0000   16.377806   3.019358   11.710120
242  242  1     1.0000   16.377806   3.019358   25.762837
243  243  1     1.0000   16.377806   8.049787   11.710120
244  244  1     1.0000   16.377806   8.049787   25.762837
245  245  1     1.0000   16.377806   13.080215   11.710120
246  246  1     1.0000   16.377806   13.080215   25.762837
247  247  1     1.0000   16.377806   18.110644   11.710120
248  248  1     1.0000   16.377806   18.110644   25.762837
249  249  1     1.0000   19.106740   3.019358   11.710120
250  250  1     1.0000   19.106740   3.019358   25.762837
251  251  1     1.0000   19.106740   8.049787   11.710120
252  252  1     1.0000   19.106740   8.049787   25.762837
253  253  1     1.0000   19.106740   13.080215   11.710120
254  254  1     1.0000   19.106740   13.080215   25.762837
255  255  1     1.0000   19.106740   18.110644   11.710120
256  256  1     1.0000   19.106740   18.110644   25.762837
257  257  1     1.0000   0.000202   4.701007   7.026230
258  258  1     1.0000   0.000202   4.701007   21.078947
259  259  1     1.0000   0.000202   9.731436   7.026230
260  260  1     1.0000   0.000202   9.731436   21.078947
261  261  1     1.0000   0.000202   14.761865   7.026230
262  262  1     1.0000   0.000202   14.761865   21.078947
263  263  1     1.0000   0.000202   19.792294   7.026230
264  264  1     1.0000   0.000202   19.792294   21.078947
265  265  1     1.0000   2.729136   4.701007   7.026230
266  266  1     1.0000   2.729136   4.701007   21.078947
267  267  1     1.0000   2.729136   9.731436   7.026230
268  268  1     1.0000   2.729136   9.731436   21.078947
269  269  1     1.0000   2.729136   14.761865   7.026230
270  270  1     1.0000   2.729136   14.761865   21.078947
271  271  1     1.0000   2.729136   19.792294   7.026230
272  272  1     1.0000   2.729136   19.792294   21.078947
273  273  1     1.0000   5.458070   4.701007   7.026230
274  274  1     1.0000   5.458070   4.701007   21.078947
275  275  1     1.0000   5.458070   9.731436   7.026230
276  276  1     1.0000   5.458070   9.731436   21.078947
277  277  1     1.0000   5.458070   14.761865   7.026230
278  278  1     1.0000   5.458070   14.761865   21.078947
279  279  1     1.0000   5.458070   19.792294   7.026230
280  280  1     1.0000   5.458070   19.792294   21.078947
281  281  1     1.0000   8.187004   4.701007   7.026230
282  282  1     1.0000   8.187004   4.701007   21.078947
283  283  1     1.0000   8.187004   9.731436   7.026230
284  284  1     1.0000   8.187004   9.731436   21.078947
285  285  1     1.0000   8.187004   14.761865   7.026230
286  286  1     1.0000   8.187004   14.761865   21.078947
287  287  1     1.0000   8.187004   19.792294   7.026230
288  288  1     1.0000   8.187004   19.792294   21.078947
289  289  1     1.0000   10.915938   4.701007   7.026230
290  290  1     1.0000   10.915938   4.701007   21.078947
291  291  1     1.0000   10.915938   9.731436   7.026230
292  292  1     1.0000   10.915938   9.731436   21.078947
293  293  1     1.0000   10.915938   14.761865   7.026230
294  294  1     1.0000   10.915938   14.761865   21.078947
295  295  1     1.0000   10.915938   19.792294   7.026230
296  296  1     1.0000   10.915938   19.792294   21.078947
297  297  1     1.0000   13.644872   4.701007   7.026230
298  298  1     1.0000   13.644872   4.701007   21.078947
299  299  1     1.0000   13.644872   9.731436   7.026230
300  300  1     1.0000   13.644872   9.731436   21.078947
301  301  1     1.0000   13.644872   14.761865   7.026230
302  302  1     1.0000   13.644872   14.761865   21.078947
303  303  1     1.0000   13.644872   19.792294   7.026230
304  304  1     1.0000   13.644872   19.792294   21.078947
305  305  1     1.0000   16.373807   4.701007   7.026230
306  306  1     1.0000   16.373807   4.701007   21.078947
307  307  1     1.0000   16.373807   9.731436   7.026230
308  308  1     1.0000   16.373807   9.731436   21.078947
309  309  1     1.0000   16.373807   14.761865   7.026230
310  310  1     1.0000   16.373807   14.761865   21.078947
311  311  1     1.0000   16.373807   19.792294   7.026230
312  312  1     1.0000   16.373807   19.792294   21.078947
313  313  1     1.0000   19.102741   4.701007   7.026230
314  314  1     1.0000   19.102741   4.701007   21.078947
315  315  1     1.0000   19.102741   9.731436   7.026230
316  316  1     1.0000   19.102741   9.731436   21.078947
317  317  1     1.0000   19.102741   14.761865   7.026230
318  318  1     1.0000   19.102741   14.761865   21.078947
319  319  1     1.0000   19.102741   19.792294   7.026230
320  320  1     1.0000   19.102741   19.792294   21.078947
321  321  1     1.0000   1.364666   2.185805   7.026232
322  322  1     1.0000   1.364666   2.185805   21.078949
323  323  1     1.0000   1.364666   7.216234   7.026232
324  324  1     1.0000   1.364666   7.216234   21.078949
325  325  1     1.0000   1.364666   12.246663   7.026232
326  326  1     1.0000   1.364666   12.246663   21.078949
327  327  1     1.0000   1.364666   17.277092   7.026232
328  328  1     1.0000   1.364666   17.277092   21.078949
329  329  1     1.0000   4.093600   2.185805   7.026232
330  330  1     1.0000   4.093600   2.185805   21.078949
331  331  1     1.0000   4.093600   7.216234   7.026232
332  332  1     1.0000   4.093600   7.216234   21.078949
333  333  1     1.0000   4.093600   12.246663   7.026232
334  334  1     1.0000   4.093600   12.246663   21.078949
335  335  1     1.0000   4.093600   17.277092   7.026232
336  336  1     1.0000   4.093600   17.277092   21.078949
337  337  1     1.0000   6.822534   2.185805   7.026232
338  338  1     1.0000   6.822534   2.185805   21.078949
339  339  1     1.0000   6.822534   7.216234   7.026232
340  340  1     1.0000   6.822534   7.216234   21.078949
341  341  1     1.0000   6.822534   12.246663   7.026232
342  342  1     1.0000   6.822534   12.246663   21.078949
343  343  1     1.0000   6.822534   17.277092   7.026232
344  344  1     1.0000   6.822534   17.277092   21.078949
345  345  1     1.0000   9.551468   2.185805   7.026232
346  346  1     1.0000   9.551468   2.185805   21.078949
347  347  1     1.0000   9.551468   7.216234   7.026232
348  348  1     1.0000   9.551468   7.216234   21.078949
349  349  1     1.0000   9.551468   12.246663   7.026232
350  350  1     1.0000   9.551468   12.246663   21.078949
351  351  1     1.0000   9.551468   17.277092   7.026232
352  352  1     1.0000   9.551468   17.277092   21.078949
353  353  1     1.0000   12.280402   2.185805   7.026232
354  354  1     1.0000   12.280402   2.185805   21.078949
355  355  1     1.0000   12.280402   7.216234   7.026232
356  356  1     1.0000   12.280402   7.216234   21.078949
357  357  1     1.0000   12.280402   12.246663   7.026232
358  358  1     1.0000   12.280402   12.246663   21.078949
359  359  1     1.0000   12.280402   17.277092   7.026232
360  360  1     1.0000   12.280402   17.277092   21.078949
361  361  1     1.0000   15.009336   2.185805   7.026232
362  362  1     1.0000   15.009336   2.185805   21.078949
363  363  1     1.0000   15.009336   7.216234   7.026232
364  364  1     1.0000   15.009336   7.216234   21.078949
365  365  1     1.0000   15.009336   12.246663   7.026232
366  366  1     1.0000   15.009336   12.246663   21.078949
367  367  1     1.0000   15.009336   17.277092   7.026232
368  368  1     1.0000   15.009336   17.277092   21.078949
369  369  1     1.0000   17.738270   2.185805   7.026232
370  370  1     1.0000   17.738270   2.185805   21.078949
371  371  1     1.0000   17.738270   7.216234   7.026232
372  372  1     1.0000   17.738270   7.216234   21.078949
373  373  1     1.0000   17.738270   12.246663   7.026232
374  374  1     1.0000   17.738270   12.246663   21.078949
375  375  1     1.0000   17.738270   17.277092   7.026232
376  376  1     1.0000   17.738270   17.277092   21.078949
377  377  1     1.0000   20.467204   2.185805   7.026232
378  378  1     1.0000   20.467204   2.185805   21.078949
379  379  1     1.0000   20.467204   7.216234   7.026232
380  380  1     1.0000   20.467204   7.216234   21.078949
381  381  1     1.0000   20.467204   12.246663   7.026232
382  382  1     1.0000   20.467204   12.246663   21.078949
383  383  1     1.0000   20.467204   17.277092   7.026232
384  384  1     1.0000   20.467204   17.277092   21.078949
385  385  2     3.0000   0.000119   4.701435   14.052661
386  386  2     3.0000   0.000119   4.701435   28.105378
387  387  2     3.0000   0.000119   9.731864   14.052661
388  388  2     3.0000   0.000119   9.731864   28.105378
389  389  2     3.0000   0.000119   14.762293   14.052661
390  390  2     3.0000   0.000119   14.762293   28.105378
391  391  2     3.0000   0.000119   19.792722   14.052661
392  392  2     3.0000   0.000119   19.792722   28.105378
393  393  2     3.0000   2.729053   4.701435   14.052661
394  394  2     3.0000   2.729053   4.701435   28.105378
395  395  2     3.0000   2.729053   9.731864   14.052661
396  396  2     3.0000   2.729053   9.731864   28.105378
397  397  2     3.0000   2.729053   14.762293   14.052661
398  398  2     3.0000   2.729053   14.762293   28.105378
399  399  2     3.0000   2.729053   19.792722   14.052661
400  400  2     3.0000   2.729053   19.792722   28.105378
401  401  2     3.0000   5.457987   4.701435   14.052661
402  402  2     3.0000   5.457987   4.701435   28.105378
403  403  2     3.0000   5.457987   9.731864   14.052661
404  404  2     3.0000   5.457987   9.731864   28.105378
405  405  2     3.0000   5.457987   14.762293   14.052661
406  406  2     3.0000   5.457987   14.762293   28.105378
407  407  2     3.0000   5.457987   19.792722   14.052661
408  408  2     3.0000   5.457987   19.792722   28.105378
409  409  2     3.0000   8.186922   4.701435   14.052661
410  410  2     3.0000   8.186922   4.701435   28.105378
411  411  2     3.0000   8.186922   9.731864   14.052661
412  412  2     3.0000   8.186922   9.731864   28.105378
413  413  2     3.0000   8.186922   14.762293   14.052661
414  414  2     3.0000   8.186922   14.762293   28.105378
415  415  2     3.0000   8.186922   19.792722   14.052661
416  416  2     3.0000   8.186922   19.792722   28.105378
417  417  2     3.0000   10.915856   4.701435   14.052661
418  418  2     3.0000   10.915856   4.701435   28.105378
419  419  2     3.0000   10.915856   9.731864   14.052661
420  420  2     3.0000   10.915856   9.731864   28.105378
421  421  2     3.0000   10.915856   14.762293   14.052661
422  422  2     3.0000   10.915856   14.762293   28.105378
423  423  2     3.0000   10.915856   19.792722   14.052661
424  424  2     3.0000   10.915856   19.792722   28.105378
425  425  2     3.0000   13.644790   4.701435   14.052661
426  426  2     3.0000   13.644790   4.701435   28.105378
427  427  2     3.0000   13.644790   9.731864   14.052661
428  428  2     3.0000   13.644790   9.731864   28.105378
429  429  2     3.0000   13.644790   14.762293   14.052661
430  430  2     3.0000   13.644790   14.762293   28.105378
431  431  2     3.0000   13.644790   19.792722   14.052661
432  432  2     3.0000   13.644790   19.792722   28.105378
433  433  2     3.0000   16.373724   4.701435   14.052661
434  434  2     3.0000   16.373724   4.701435   28.105378
435  435  2     3.0000   16.373724   9.731864   14.052661
436  436  2     3.0000   16.373724   9.731864   28.105378
437  437  2     3.0000   16.373724   14.762293   14.052661
438  438  2     3.0000   16.373724   14.762293   28.105378
439  439  2     3.0000   16.373724   19.792722   14.052661
440  440  2     3.0000   16.373724   19.792722   28.105378
441  441  2     3.0000   19.102658   4.701435   14.052661
442  442  2     3.0000   19.102658   4.701435   28.105378
443  443  2     3.0000   19.102658   9.731864   14.052661
444  444  2     3.0000   19.102658   9.731864   28.105378
445  445  2     3.0000   19.102658   14.762293   14.052661
446  446  2     3.0000   19.102658   14.762293   28.105378
447  447  2     3.0000   19.102658   19.792722   14.052661
448  448  2     3.0000   19.102658   19.792722   28.105378
449  449  2     3.0000   1.364658   2.186297   0.000119
450  450  2     3.0000   1.364658   2.186297   14.052836
451  451  2     3.0000   1.364658   7.216725   0.000119
452  452  2     3.0000   1.364658   7.216725   14.052836
453  453  2     3.0000   1.364658   12.247154   0.000119
454  454  2     3.0000   1.364658   12.247154   14.052836
455  455  2     3.0000   1.364658   17.277583   0.000119
456  456  2     3.0000   1.364658   17.277583   14.052836
457  457  2     3.0000   4.093592   2.186297   0.000119
458  458  2     3.0000   4.093592   2.186297   14.052836
459  459  2     3.0000   4.093592   7.216725   0.000119
460  460  2     3.0000   4.093592   7.216725   14.052836
461  461  2     3.0000   4.093592   12.247154   0.000119
462  462  2     3.0000   4.093592   12.247154   14.052836
463  463  2     3.0000   4.093592   17.277583   0.000119
464  464  2     3.0000   4.093592   17.277583   14.052836
465  465  2     3.0000   6.822526   2.186297   0.000119
466  466  2     3.0000   6.822526   2.186297   14.052836
467  467  2     3.0000   6.822526   7.216725   0.000119
468  468  2     3.0000   6.822526   7.216725   14.052836
469  469  2     3.0000   6.822526   12.247154   0.000119
470  470  2     3.0000   6.822526   12.247154   14.052836
471  471  2     3.0000   6.822526   17.277583   0.000119
472  472  2     3.0000   6.822526   17.277583   14.052836
473  473  2     3.0000   9.551460   2.186297   0.000119
474  474  2     3.0000   9.551460   2.186297   14.052836
475  475  2     3.0000   9.551460   7.216725   0.000119
476  476  2     3.0000   9.551460   7.216725   14.052836
477  477  2     3.0000   9.551460   12.247154   0.000119
478  478  2     3.0000   9.551460   12.247154   14.052836
479  479  2     3.0000   9.551460   17.277583   0.000119
480  480  2     3.0000   9.551460   17.277583   14.052836
481  481  2     3.0000   12.280394   2.186297   0.000119
482  482  2     3.0000   12.280394   2.186297   14.052836
483  483  2     3.0000   12.280394   7.216725   0.000119
484  484  2     3.0000   12.280394   7.216725   14.052836
485  485  2     3.0000   12.280394   12.247154   0.000119
486  486  2     3.0000   12.280394   12.247154   14.052836
487  487  2     3.0000   12.280394   17.277583   0.000119
488  488  2     3.0000   12.280394   17.277583   14.052836
489  489  2     3.0000   15.009328   2.186297   0.000119
490  490  2     3.0000   15.009328   2.186297   14.052836
491  491  2     3.0000   15.009328   7.216725   0.000119
492  492  2     3.0000   15.009328   7.216725   14.052836
493  493  2     3.0000   15.009328   12.247154   0.000119
494  494  2     3.0000   15.009328   12.247154   14.052836
495  495  2     3.0000   15.009328   17.277583   0.000119
496  496  2     3.0000   15.009328   17.277583   14.052836
497  497  2     3.0000   17.738262   2.186297   0.000119
498  498  2     3.0000   17.738262   2.186297   14.052836
499  499  2     3.0000   17.738262   7.216725   0.000119
500  500  2     3.0000   17.738262   7.216725   14.052836
501  501  2     3.0000   17.738262   12.247154   0.000119
502  502  2     3.0000   17.738262   12.247154   14.052836
503  503  2     3.0000   17.738262   17.277583   0.000119
504  504  2     3.0000   17.738262   17.277583   14.052836
505  505  2     3.0000   20.467196   2.186297   0.000119
506  506  2     3.0000   20.467196   2.186297   14.052836
507  507  2     3.0000   20.467196   7.216725   0.000119
508  508  2     3.0000   20.467196   7.216725   14.052836
509  509  2     3.0000   20.467196   12.247154   0.000119
510  510  2     3.0000   20.467196   12.247154   14.052836
511  511  2     3.0000   20.467196   17.277583   0.000119
512  512  2     3.0000   20.467196   17.277583   14.052836
513  513  2     3.0000   1.357543   0.518130   4.685805
514  514  2     3.0000   1.357543   0.518130   18.738522
515  515  2     3.0000   1.357543   5.548559   4.685805