title

288   atoms
96   bonds

4   atom types
1   bond types


0.0 10.915736 xlo xhi
0.0 10.060858 ylo yhi
0.0 14.052717 zlo zhi

0.00000 0.00000 0.00000 xy xz yz 

Masses

1   6.94100 # Li
2  58.69340 # Ni
3  14.39910 # O core
4   1.59990 # O shell

Atoms

1    1    1     1.0000   2.659633   1.307744   2.433810
2    2    1     1.0000   2.933713   6.562764   2.819004
3    3    1     1.0000   5.207297   1.415023   2.133779
4    4    1     1.0000   5.410790   6.154871   2.305508
5    5    1     1.0000   8.096593   1.212189   2.213962
6    6    1     1.0000   8.217374   6.613826   2.398841
7    7    1     1.0000   0.162618   1.200374   2.561256
8    8    1     1.0000   0.211060   6.881876   2.368656
9    9    1     1.0000   1.214100   4.333480   2.304444
10   10   1     1.0000   1.268200   8.968717   2.617683
11   11   1     1.0000   3.945562   3.864641   2.178407
12   12   1     1.0000   4.076071   9.186260   2.561486
13   13   1     1.0000   6.913363   3.709755   2.127346
14   14   1     1.0000   6.723407   9.001467   2.350406
15   15   1     1.0000   9.394995   3.971178   2.622938
16   16   1     1.0000   9.303926   8.901959   2.157254
17   17   1     1.0000   1.264650   0.313279   11.545555
18   18   1     1.0000   1.357181   5.279062   11.834508
19   19   1     1.0000   4.283209   0.260557   11.630751
20   20   1     1.0000   4.057709   5.374459   11.417085
21   21   1     1.0000   7.186726   0.722047   11.591879
22   22   1     1.0000   6.906900   5.381222   11.784214
23   23   1     1.0000   9.717253   0.466004   11.734358
24   24   1     1.0000   9.541604   5.616600   11.919545
25   25   1     1.0000   0.016653   2.852752   11.617096
26   26   1     1.0000   0.173359   8.172889   11.570127
27   27   1     1.0000   2.700162   2.991730   11.916493
28   28   1     1.0000   2.631184   7.877559   11.958935
29   29   1     1.0000   5.274461   2.834576   11.592376
30   30   1     1.0000   5.675526   8.026950   11.596663
31   31   1     1.0000   8.348272   2.910091   11.830581
32   32   1     1.0000   8.279397   8.025295   11.661156
33   33   1     1.0000   0.240144   4.795135   7.072420
34   34   1     1.0000   10.842131   9.677439   7.209421
35   35   1     1.0000   2.784847   4.895143   6.953095
36   36   1     1.0000   2.707428   9.766526   7.028522
37   37   1     1.0000   5.641247   4.783852   7.088941
38   38   1     1.0000   5.565904   10.049208   7.023016
39   39   1     1.0000   8.587886   4.813667   6.925159
40   40   1     1.0000   8.170313   9.675896   7.015962
41   41   1     1.0000   1.360301   2.063799   7.050882
42   42   1     1.0000   1.294030   7.284122   6.918675
43   43   1     1.0000   3.840534   2.420205   6.845719
44   44   1     1.0000   4.046835   7.005731   7.027034
45   45   1     1.0000   6.860167   2.199201   6.940960
46   46   1     1.0000   6.789836   7.124507   7.278328
47   47   1     1.0000   9.548738   2.256375   6.885446
48   48   1     1.0000   9.592272   7.521213   6.940198
49   49   2     3.0000   10.625017   4.731136   14.035737
50   50   2     3.0000   10.856183   9.807828   0.045499
51   51   2     3.0000   2.598020   4.790959   0.081072
52   52   2     3.0000   2.696344   9.802433   0.257871
53   53   2     3.0000   5.364786   4.667104   0.104264
54   54   2     3.0000   5.533547   9.678909   0.038027
55   55   2     3.0000   8.121117   4.734199   13.942183
56   56   2     3.0000   8.276871   9.666189   14.042164
57   57   2     3.0000   1.331814   2.223979   0.073584
58   58   2     3.0000   1.410398   7.375012   0.042751
59   59   2     3.0000   4.090237   2.320936   13.935662
60   60   2     3.0000   4.167643   7.342958   0.204183
61   61   2     3.0000   6.566313   2.101817   14.016525
62   62   2     3.0000   6.774857   7.306207   13.914230
63   63   2     3.0000   9.494458   2.237379   0.089256
64   64   2     3.0000   9.540918   7.272067   14.021023
65   65   2     3.0000   1.241895   0.510325   4.660651
66   66   2     3.0000   1.361919   5.600208   4.791526
67   67   2     3.0000   4.132801   0.600602   4.712686
68   68   2     3.0000   4.083260   5.458904   4.647405
69   69   2     3.0000   6.826540   0.489091   4.607948
70   70   2     3.0000   6.764909   5.679708   4.683547
71   71   2     3.0000   9.616885   0.481221   4.627802
72   72   2     3.0000   9.638313   5.664178   4.804522
73   73   2     3.0000   2.539008   2.981543   4.634793
74   74   2     3.0000   2.856980   8.271066   4.584992
75   75   2     3.0000   5.410048   2.937194   4.712638
76   76   2     3.0000   5.556145   8.096824   4.777816
77   77   2     3.0000   8.253444   3.031083   4.563628
78   78   2     3.0000   8.360481   8.174988   4.818840
79   79   2     3.0000   10.875742   3.133274   4.521896
80   80   2     3.0000   0.179585   8.111338   4.747190
81   81   2     3.0000   10.895383   1.273960   9.329854
82   82   2     3.0000   10.869687   6.128838   9.266503
83   83   2     3.0000   2.673556   1.129427   9.400712
84   84   2     3.0000   2.702039   6.317849   9.278507
85   85   2     3.0000   5.576459   1.326565   9.297337
86   86   2     3.0000   5.486294   6.313731   9.312742
87   87   2     3.0000   8.160190   1.308286   9.302299
88   88   2     3.0000   8.278414   6.244605   9.345879
89   89   2     3.0000   1.424008   3.720252   9.398626
90   90   2     3.0000   1.413815   8.697456   9.253596
91   91   2     3.0000   4.061094   3.677793   9.452339
92   92   2     3.0000   4.166220   8.808448   9.334116
93   93   2     3.0000   6.815630   3.727495   9.326931
94   94   2     3.0000   6.891644   8.834377   9.415052
95   95   2     3.0000   9.602255   3.840503   9.447567
96   96   2     3.0000   9.600944   8.816025   9.171566
97   97   3    -2.0000   2.777713   4.754447   3.648721
98   97   4     0.0000   2.777713   4.754447   3.648721
99   98   3    -2.0000   2.657856   9.955419   3.522862
100  98   4     0.0000   2.657856   9.955419   3.522862
101  99   3    -2.0000   5.516575   4.585229   3.544426
102  99   4     0.0000   5.516575   4.585229   3.544426
103  100  3    -2.0000   5.383673   9.896048   3.802248
104  100  4     0.0000   5.383673   9.896048   3.802248
105  101  3    -2.0000   8.391957   4.972825   3.715167
106  101  4     0.0000   8.391957   4.972825   3.715167
107  102  3    -2.0000   8.270870   9.797104   3.693839
108  102  4     0.0000   8.270870   9.797104   3.693839
109  103  3    -2.0000   0.002175   4.898974   3.694543
110  103  4     0.0000   0.002175   4.898974   3.694543
111  104  3    -2.0000   10.862823   9.729357   3.599454
112  104  4     0.0000   10.862823   9.729357   3.599454
113  105  3    -2.0000   1.209366   2.279438   3.508099
114  105  4     0.0000   1.209366   2.279438   3.508099
115  106  3    -2.0000   1.537863   7.277230   3.750107
116  106  4     0.0000   1.537863   7.277230   3.750107
117  107  3    -2.0000   4.085898   2.150303   3.767471
118  107  4     0.0000   4.085898   2.150303   3.767471
119  108  3    -2.0000   4.240486   7.805985   3.588040
120  108  4     0.0000   4.240486   7.805985   3.588040
121  109  3    -2.0000   6.843741   2.105644   3.472227
122  109  4     0.0000   6.843741   2.105644   3.472227
123  110  3    -2.0000   7.055285   7.502965   3.754513
124  110  4     0.0000   7.055285   7.502965   3.754513
125  111  3    -2.0000   9.494943   2.213639   3.466767
126  111  4     0.0000   9.494943   2.213639   3.466767
127  112  3    -2.0000   9.665760   7.208388   3.837776
128  112  4     0.0000   9.665760   7.208388   3.837776
129  113  3    -2.0000   0.010481   4.785086   10.431151
130  113  4     0.0000   0.010481   4.785086   10.431151
131  114  3    -2.0000   0.020161   9.545851   10.318169
132  114  4     0.0000   0.020161   9.545851   10.318169
133  115  3    -2.0000   2.600897   4.511962   10.474011
134  115  4     0.0000   2.600897   4.511962   10.474011
135  116  3    -2.0000   3.018471   9.640130   10.367554
136  116  4     0.0000   3.018471   9.640130   10.367554
137  117  3    -2.0000   5.454661   4.464257   10.406764
138  117  4     0.0000   5.454661   4.464257   10.406764
139  118  3    -2.0000   5.545454   9.544774   10.314017
140  118  4     0.0000   5.545454   9.544774   10.314017
141  119  3    -2.0000   8.137973   4.413235   10.482753
142  119  4     0.0000   8.137973   4.413235   10.482753
143  120  3    -2.0000   8.080432   9.885953   10.273430
144  120  4     0.0000   8.080432   9.885953   10.273430
145  121  3    -2.0000   1.374175   2.038260   10.496073
146  121  4     0.0000   1.374175   2.038260   10.496073
147  122  3    -2.0000   1.634843   7.223629   10.407051
148  122  4     0.0000   1.634843   7.223629   10.407051
149  123  3    -2.0000   3.896809   1.777788   10.340162
150  123  4     0.0000   3.896809   1.777788   10.340162
151  124  3    -2.0000   4.318075   7.123999   10.360843
152  124  4     0.0000   4.318075   7.123999   10.360843
153  125  3    -2.0000   6.836636   2.001098   10.376694
154  125  4     0.0000   6.836636   2.001098   10.376694
155  126  3    -2.0000   6.948937   6.931771   10.384583
156  126  4     0.0000   6.948937   6.931771   10.384583
157  127  3    -2.0000   9.580307   2.338597   10.244508
158  127  4     0.0000   9.580307   2.338597   10.244508
159  128  3    -2.0000   9.506123   7.284870   10.387723
160  128  4     0.0000   9.506123   7.284870   10.387723
161  129  3    -2.0000   1.400454   0.285255   8.563352
162  129  4     0.0000   1.400454   0.285255   8.563352
163  130  3    -2.0000   1.381036   5.339094   8.340246
164  130  4     0.0000   1.381036   5.339094   8.340246
165  131  3    -2.0000   3.936288   0.395631   8.396671
166  131  4     0.0000   3.936288   0.395631   8.396671
167  132  3    -2.0000   4.064011   5.426859   8.244336
168  132  4     0.0000   4.064011   5.426859   8.244336
169  133  3    -2.0000   6.932135   0.676546   8.248833
170  133  4     0.0000   6.932135   0.676546   8.248833
171  134  3    -2.0000   6.845286   5.395280   8.258911
172  134  4     0.0000   6.845286   5.395280   8.258911
173  135  3    -2.0000   9.403917   0.453201   8.177007
174  135  4     0.0000   9.403917   0.453201   8.177007
175  136  3    -2.0000   9.363749   5.221129   8.378482
176  136  4     0.0000   9.363749   5.221129   8.378482
177  137  3    -2.0000   10.872513   3.098435   8.305676
178  137  4     0.0000   10.872513   3.098435   8.305676
179  138  3    -2.0000   0.083928   8.116461   8.098609
180  138  4     0.0000   0.083928   8.116461   8.098609
181  139  3    -2.0000   2.820880   2.722463   8.352208
182  139  4     0.0000   2.820880   2.722463   8.352208
183  140  3    -2.0000   2.805909   8.062039   8.408459
184  140  4     0.0000   2.805909   8.062039   8.408459
185  141  3    -2.0000   5.551958   3.048345   8.336484
186  141  4     0.0000   5.551958   3.048345   8.336484
187  142  3    -2.0000   5.547073   7.987333   8.388328
188  142  4     0.0000   5.547073   7.987333   8.388328
189  143  3    -2.0000   8.321223   2.846148   8.325386
190  143  4     0.0000   8.321223   2.846148   8.325386
191  144  3    -2.0000   7.950308   8.125363   8.202098
192  144  4     0.0000   7.950308   8.125363   8.202098
193  145  3    -2.0000   1.154797   0.684492   1.069143
194  145  4     0.0000   1.154797   0.684492   1.069143
195  146  3    -2.0000   1.012230   5.524060   0.929146
196  146  4     0.0000   1.012230   5.524060   0.929146
197  147  3    -2.0000   4.133542   0.691334   1.042506
198  147  4     0.0000   4.133542   0.691334   1.042506
199  148  3    -2.0000   3.852163   5.515090   1.211638
200  148  4     0.0000   3.852163   5.515090   1.211638
201  149  3    -2.0000   6.983177   0.317728   0.919569
202  149  4     0.0000   6.983177   0.317728   0.919569
203  150  3    -2.0000   6.734118   5.527447   1.092180
204  150  4     0.0000   6.734118   5.527447   1.092180
205  151  3    -2.0000   9.479600   0.437702   1.019925
206  151  4     0.0000   9.479600   0.437702   1.019925
207  152  3    -2.0000   9.422960   5.668566   1.104262
208  152  4     0.0000   9.422960   5.668566   1.104262
209  153  3    -2.0000   0.050497   3.170974   1.247780
210  153  4     0.0000   0.050497   3.170974   1.247780
211  154  3    -2.0000   0.208894   8.200121   1.160215
212  154  4     0.0000   0.208894   8.200121   1.160215
213  155  3    -2.0000   2.526580   3.055919   1.154824
214  155  4     0.0000   2.526580   3.055919   1.154824
215  156  3    -2.0000   2.804139   7.952477   1.198989
216  156  4     0.0000   2.804139   7.952477   1.198989
217  157  3    -2.0000   5.362110   2.911042   1.321161
218  157  4     0.0000   5.362110   2.911042   1.321161
219  158  3    -2.0000   5.533308   8.261631   1.138428
220  158  4     0.0000   5.533308   8.261631   1.138428
221  159  3    -2.0000   8.136039   3.247358   0.976374
222  159  4     0.0000   8.136039   3.247358   0.976374
223  160  3    -2.0000   8.314126   8.064889   0.843054
224  160  4     0.0000   8.314126   8.064889   0.843054
225  161  3    -2.0000   0.001604   1.387268   12.928796
226  161  4     0.0000   0.001604   1.387268   12.928796
227  162  3    -2.0000   10.820944   6.624652   13.030674
228  162  4     0.0000   10.820944   6.624652   13.030674
229  163  3    -2.0000   2.733801   1.708399   13.064098
230  163  4     0.0000   2.733801   1.708399   13.064098
231  164  3    -2.0000   2.602249   6.515048   12.954743
232  164  4     0.0000   2.602249   6.515048   12.954743
233  165  3    -2.0000   5.525822   1.215199   12.937011
234  165  4     0.0000   5.525822   1.215199   12.937011
235  166  3    -2.0000   5.265023   6.187809   12.974458
236  166  4     0.0000   5.265023   6.187809   12.974458
237  167  3    -2.0000   8.245498   1.242110   13.045913
238  167  4     0.0000   8.245498   1.242110   13.045913
239  168  3    -2.0000   8.193807   6.317642   12.923551
240  168  4     0.0000   8.193807   6.317642   12.923551
241  169  3    -2.0000   1.144932   3.789533   13.213963
242  169  4     0.0000   1.144932   3.789533   13.213963
243  170  3    -2.0000   1.282007   9.163725   13.007674
244  170  4     0.0000   1.282007   9.163725   13.007674
245  171  3    -2.0000   3.984312   3.928399   13.065627
246  171  4     0.0000   3.984312   3.928399   13.065627
247  172  3    -2.0000   4.136194   8.984736   13.050058
248  172  4     0.0000   4.136194   8.984736   13.050058
249  173  3    -2.0000   6.786737   3.852640   12.976196
250  173  4     0.0000   6.786737   3.852640   12.976196
251  174  3    -2.0000   6.968252   8.960708   12.921099
252  174  4     0.0000   6.968252   8.960708   12.921099
253  175  3    -2.0000   9.474983   3.977506   12.935250
254  175  4     0.0000   9.474983   3.977506   12.935250
255  176  3    -2.0000   9.640551   8.997210   12.813958
256  176  4     0.0000   9.640551   8.997210   12.813958
257  177  3    -2.0000   2.519977   1.262568   5.784611
258  177  4     0.0000   2.519977   1.262568   5.784611
259  178  3    -2.0000   2.734390   6.222089   5.655835
260  178  4     0.0000   2.734390   6.222089   5.655835
261  179  3    -2.0000   5.388969   1.381517   5.896265
262  179  4     0.0000   5.388969   1.381517   5.896265
263  180  3    -2.0000   5.282650   6.339969   5.715323
264  180  4     0.0000   5.282650   6.339969   5.715323
265  181  3    -2.0000   8.353536   1.433659   5.602457
266  181  4     0.0000   8.353536   1.433659   5.602457
267  182  3    -2.0000   8.082947   6.537169   5.792426
268  182  4     0.0000   8.082947   6.537169   5.792426
269  183  3    -2.0000   0.032357   1.356693   5.719588
270  183  4     0.0000   0.032357   1.356693   5.719588
271  184  3    -2.0000   0.025978   6.462307   5.893867
272  184  4     0.0000   0.025978   6.462307   5.893867
273  185  3    -2.0000   1.377351   3.711150   5.718293
274  185  4     0.0000   1.377351   3.711150   5.718293
275  186  3    -2.0000   1.545773   8.825221   5.785941
276  186  4     0.0000   1.545773   8.825221   5.785941
277  187  3    -2.0000   3.974512   3.842195   5.764193
278  187  4     0.0000   3.974512   3.842195   5.764193
279  188  3    -2.0000   4.055906   9.139201   5.714381
280  188  4     0.0000   4.055906   9.139201   5.714381
281  189  3    -2.0000   6.727673   3.676598   5.665300
282  189  4     0.0000   6.727673   3.676598   5.665300
283  190  3    -2.0000   6.811497   9.267818   5.810892
284  190  4     0.0000   6.811497   9.267818   5.810892
285  191  3    -2.0000   9.775074   3.956263   5.799719
286  191  4     0.0000   9.775074   3.956263   5.799719
287  192  3    -2.0000   9.569010   9.070097   5.853731
288  192  4     0.0000   9.569010   9.070097   5.853731

Bonds

1    1    97   98  
2    1    99   100 
3    1    101  102 
4    1    103  104 
5    1    105  106 
6    1    107  108 
7    1    109  110 
8    1    111  112 
9    1    113  114 
10   1    115  116 
11   1    117  118 
12   1    119  120 
13   1    121  122 
14   1    123  124 
15   1    125  126 
16   1    127  128 
17   1    129  130 
18   1    131  132 
19   1    133  134 
20   1    135  136 
21   1    137  138 
22   1    139  140 
23   1    141  142 
24   1    143  144 
25   1    145  146 
26   1    147  148 
27   1    149  150 
28   1    151  152 
29   1    153  154 
30   1    155  156 
31   1    157  158 
32   1    159  160 
33   1    161  162 
34   1    163  164 
35   1    165  166 
36   1    167  168 
37   1    169  170 
38   1    171  172 
39   1    173  174 
40   1    175  176 
41   1    177  178 
42   1    179  180 
43   1    181  182 
44   1    183  184 
45   1    185  186 
46   1    187  188 
47   1    189  190 
48   1    191  192 
49   1    193  194 
50   1    195  196 
51   1    197  198 
52   1    199  200 
53   1    201  202 
54   1    203  204 
55   1    205  206 
56   1    207  208 
57   1    209  210 
58   1    211  212 
59   1    213  214 
60   1    215  216 
61   1    217  218 
62   1    219  220 
63   1    221  222 
64   1    223  224 
65   1    225  226 
66   1    227  228 
67   1    229  230 
68   1    231  232 
69   1    233  234 
70   1    235  236 
71   1    237  238 
72   1    239  240 
73   1    241  242 
74   1    243  244 
75   1    245  246 
76   1    247  248 
77   1    249  250 
78   1    251  252 
79   1    253  254 
80   1    255  256 
81   1    257  258 
82   1    259  260 
83   1    261  262 
84   1    263  264 
85   1    265  266 
86   1    267  268 
87   1    269  270 
88   1    271  272 
89   1    273  274 
90   1    275  276 
91   1    277  278 
92   1    279  280 
93   1    281  282 
94   1    283  284 
95   1    285  286 
96   1    287  288 

