ITEM: TIMESTEP
0
ITEM: NUMBER OF ATOMS
2304
ITEM: BOX BOUNDS xy xz yz pp pp pp
-4.1701384733644092e-01 2.2248485847336429e+01 0.0000000000000000e+00
1.1309543421639102e-02 2.0110406456578307e+01 0.0000000000000000e+00
-5.1305535700417049e-01 2.8618489357004069e+01 0.0000000000000000e+00
ITEM: ATOMS c_stresses[1] c_stresses[2] c_stresses[3] c_stresses[4] c_stresses[5] c_stresses[6] 
3.88454e+06 4.27957e+06 3.14015e+06 -1.43653e+06 -869021 251551 
3.88348e+06 4.27497e+06 3.1438e+06 -1.43874e+06 -869406 254399 
3.88978e+06 4.27785e+06 3.1445e+06 -1.4355e+06 -870645 254745 
3.88811e+06 4.27401e+06 3.14842e+06 -1.43748e+06 -871306 257838 
3.88466e+06 4.28127e+06 3.1377e+06 -1.43489e+06 -867904 248441 
3.88349e+06 4.27754e+06 3.14187e+06 -1.43687e+06 -868865 252262 
3.88956e+06 4.2814e+06 3.14311e+06 -1.43323e+06 -870447 252963 
3.88805e+06 4.27634e+06 3.1467e+06 -1.4357e+06 -870667 255427 
494240 4.57614e+06 3.10268e+06 2.30043e+06 3.14124e+06 -2.27953e+06 
484157 4.5737e+06 3.10634e+06 2.30872e+06 3.14661e+06 -2.29065e+06 
479402 4.57502e+06 3.10596e+06 2.31465e+06 3.15023e+06 -2.29916e+06 
467875 4.57243e+06 3.10981e+06 2.32466e+06 3.15648e+06 -2.31204e+06 
504915 4.57764e+06 3.10032e+06 2.28902e+06 3.1348e+06 -2.26518e+06 
491246 4.5749e+06 3.10453e+06 2.30147e+06 3.14231e+06 -2.2815e+06 
484254 4.57607e+06 3.10458e+06 2.31014e+06 3.14731e+06 -2.29319e+06 
475460 4.5736e+06 3.10805e+06 2.31707e+06 3.15191e+06 -2.30228e+06 
3.20897e+06 4.06395e+06 3.68263e+06 663167 -14514 1.60999e+06 
3.20706e+06 4.06128e+06 3.68571e+06 661916 -14526.9 1.61101e+06 
3.21876e+06 4.05658e+06 3.68555e+06 663514 -15130.2 1.61188e+06 
3.21609e+06 4.05437e+06 3.68875e+06 662726 -15711 1.61274e+06 
3.20897e+06 4.06451e+06 3.68192e+06 664564 -12845 1.60934e+06 
3.20729e+06 4.06183e+06 3.6851e+06 663729 -13696.4 1.61061e+06 
3.21916e+06 4.05716e+06 3.68509e+06 665842 -14682 1.61158e+06 
3.21626e+06 4.05487e+06 3.68823e+06 664381 -14691.3 1.61226e+06 
1.62916e+06 5.48019e+06 3.43394e+06 7786.54 -1.15685e+06 -331631 
1.62453e+06 5.47894e+06 3.4377e+06 9028.55 -1.15726e+06 -332918 
1.62353e+06 5.48069e+06 3.43735e+06 10328.6 -1.15749e+06 -334841 
1.61885e+06 5.47936e+06 3.44121e+06 13053.1 -1.15845e+06 -336053 
1.63156e+06 5.48027e+06 3.43232e+06 3171.6 -1.15473e+06 -330418 
1.62615e+06 5.47905e+06 3.43652e+06 6563.61 -1.15597e+06 -332230 
1.62465e+06 5.48083e+06 3.43648e+06 9581.33 -1.15647e+06 -334471 
1.62057e+06 5.47944e+06 3.44001e+06 10523.9 -1.15691e+06 -335270 
3.91092e+06 3.73671e+06 3.35794e+06 -72144.4 -1.05155e+06 928797 
3.90898e+06 3.73411e+06 3.36117e+06 -71211.9 -1.0508e+06 930065 
3.92121e+06 3.72945e+06 3.36104e+06 -73612.6 -1.04969e+06 930970 
3.91801e+06 3.72723e+06 3.36422e+06 -72066.5 -1.04977e+06 931647 
3.91095e+06 3.73604e+06 3.35861e+06 -70653.6 -1.05002e+06 929465 
3.90876e+06 3.73344e+06 3.36173e+06 -69342.1 -1.05008e+06 930490 
3.9208e+06 3.72874e+06 3.36145e+06 -71267.5 -1.04935e+06 931312 
3.91786e+06 3.72661e+06 3.3647e+06 -70363.4 -1.04887e+06 932162 
1.15187e+06 4.5415e+06 5.04339e+06 522896 375682 -691077 
1.14705e+06 4.54002e+06 5.04743e+06 519765 376877 -692669 
1.1461e+06 4.54149e+06 5.04738e+06 516967 377368 -694708 
1.14238e+06 4.53991e+06 5.05082e+06 516224 377732 -695412 
1.14999e+06 4.54122e+06 5.04473e+06 518379 377932 -692084 
1.14581e+06 4.53974e+06 5.04839e+06 517382 378241 -693241 
1.14527e+06 4.54119e+06 5.04808e+06 516297 378440 -695016 
1.14105e+06 4.53966e+06 5.05179e+06 513776 379351 -696062 
5.39733e+06 1.92846e+06 3.87766e+06 1.2257e+06 494864 1.99087e+06 
5.39625e+06 1.92431e+06 3.88214e+06 1.22764e+06 496023 1.9946e+06 
5.40255e+06 1.92705e+06 3.88362e+06 1.22419e+06 497759 1.99498e+06 
5.40105e+06 1.92195e+06 3.8874e+06 1.22659e+06 498065 1.99746e+06 
5.39741e+06 1.9264e+06 3.88025e+06 1.22732e+06 496201 1.99389e+06 
5.39637e+06 1.92163e+06 3.88413e+06 1.22947e+06 496687 1.99671e+06 
5.40287e+06 1.9236e+06 3.885e+06 1.22642e+06 498034 1.99679e+06 
5.40125e+06 1.91947e+06 3.88918e+06 1.22834e+06 498849 1.99982e+06 
2.01089e+06 1.79217e+06 5.17692e+06 -690934 1.35068e+06 -2.36138e+06 
2.00173e+06 1.78597e+06 5.18432e+06 -701953 1.34799e+06 -2.37357e+06 
1.99805e+06 1.78504e+06 5.1864e+06 -709840 1.34604e+06 -2.38262e+06 
1.99193e+06 1.78037e+06 5.19182e+06 -715871 1.34428e+06 -2.38931e+06 
2.0043e+06 1.78774e+06 5.18196e+06 -701143 1.34856e+06 -2.37207e+06 
1.99736e+06 1.78277e+06 5.18789e+06 -708371 1.34651e+06 -2.38033e+06 
1.99511e+06 1.78255e+06 5.18895e+06 -713737 1.34505e+06 -2.38699e+06 
1.98725e+06 1.77713e+06 5.1954e+06 -722617 1.34273e+06 -2.39656e+06 
3.82074e+06 578017 6.2622e+06 433914 -229635 -675431 
3.8198e+06 566432 6.27514e+06 433929 -229126 -672309 
3.82278e+06 562359 6.28179e+06 433825 -228791 -671525 
3.82153e+06 549664 6.29645e+06 433805 -228181 -668019 
3.82076e+06 589751 6.24794e+06 433961 -230341 -679117 
3.81967e+06 574966 6.26542e+06 433935 -229580 -674856 
3.82235e+06 569133 6.27511e+06 433792 -229102 -673452 
3.82132e+06 558480 6.28655e+06 433818 -228668 -670666 
3.97967e+06 2.94475e+06 1.62371e+06 -811945 511106 2.06753e+06 
3.97795e+06 2.93877e+06 1.62348e+06 -812081 511217 2.07289e+06 
3.97663e+06 2.93994e+06 1.61697e+06 -812185 511279 2.07239e+06 
3.97554e+06 2.93267e+06 1.61618e+06 -812355 511412 2.07835e+06 
3.97891e+06 2.95142e+06 1.6269e+06 -811758 510951 2.06164e+06 
3.97763e+06 2.94301e+06 1.62523e+06 -811963 511110 2.0683e+06 
3.97666e+06 2.94272e+06 1.6176e+06 -812108 511201 2.06856e+06 
3.97522e+06 2.93731e+06 1.61788e+06 -812225 511297 2.07388e+06 
3.8549e+06 2.95626e+06 4.89453e+06 1.21191e+06 -654120 -102564 
3.85479e+06 2.95076e+06 4.89932e+06 1.21148e+06 -655904 -101417 
3.86096e+06 2.94824e+06 4.90071e+06 1.21323e+06 -657301 -101444 
3.86055e+06 2.94274e+06 4.90588e+06 1.21362e+06 -659832 -100173 
3.85366e+06 2.95998e+06 4.89118e+06 1.21096e+06 -650584 -103730 
3.85399e+06 2.95369e+06 4.89688e+06 1.21156e+06 -653803 -102235 
3.86032e+06 2.95078e+06 4.899e+06 1.21426e+06 -655906 -102122 
3.85967e+06 2.94566e+06 4.90354e+06 1.21359e+06 -657442 -101074 
2.18294e+06 5.77168e+06 3.10288e+06 -410298 1.29607e+06 -1.43477e+06 
2.17611e+06 5.77147e+06 3.10559e+06 -412859 1.29776e+06 -1.43418e+06 
2.17088e+06 5.77726e+06 3.10146e+06 -413410 1.29956e+06 -1.4366e+06 
2.16405e+06 5.77674e+06 3.10404e+06 -416022 1.30161e+06 -1.43591e+06 
2.18777e+06 5.77104e+06 3.10261e+06 -407735 1.29397e+06 -1.43511e+06 
2.17938e+06 5.771e+06 3.10517e+06 -410826 1.29653e+06 -1.43486e+06 
2.17323e+06 5.77692e+06 3.10083e+06 -411402 1.29906e+06 -1.43748e+06 
2.16754e+06 5.77631e+06 3.10354e+06 -413771 1.30032e+06 -1.43637e+06 
2.21421e+06 4.14734e+06 4.87719e+06 -807060 -1.51617e+06 -757156 
2.21377e+06 4.14336e+06 4.88066e+06 -807741 -1.51569e+06 -756805 
2.22023e+06 4.14045e+06 4.88119e+06 -808271 -1.51552e+06 -757027 
2.21923e+06 4.1369e+06 4.88457e+06 -807626 -1.51602e+06 -756679 
2.21418e+06 4.1474e+06 4.87706e+06 -808715 -1.51338e+06 -757187 
2.21378e+06 4.1434e+06 4.88055e+06 -808039 -1.5141e+06 -756823 
2.22026e+06 4.14047e+06 4.88112e+06 -807362 -1.51441e+06 -757040 
2.21923e+06 4.13693e+06 4.88447e+06 -808029 -1.51412e+06 -756701 
2.92675e+06 3.88884e+06 3.80117e+06 -1.03064e+06 -1.92341e+06 -661373 
2.92027e+06 3.88947e+06 3.80432e+06 -1.0309e+06 -1.92345e+06 -662088 
2.91487e+06 3.89557e+06 3.80152e+06 -1.03135e+06 -1.92365e+06 -664452 
2.90972e+06 3.8956e+06 3.80449e+06 -1.03093e+06 -1.92362e+06 -664576 
2.9264e+06 3.88892e+06 3.80121e+06 -1.03122e+06 -1.9229e+06 -661419 
2.92005e+06 3.8895e+06 3.80435e+06 -1.0308e+06 -1.92299e+06 -662097 
2.91474e+06 3.89557e+06 3.80155e+06 -1.03042e+06 -1.92298e+06 -664437 
2.90948e+06 3.89563e+06 3.80452e+06 -1.03069e+06 -1.9231e+06 -664597 
4.49002e+06 1.69372e+06 4.28861e+06 -9042.53 1.64917e+06 489300 
4.491e+06 1.68618e+06 4.29518e+06 -10499.3 1.65335e+06 490674 
4.49665e+06 1.68289e+06 4.29792e+06 -13522.1 1.65595e+06 490833 
4.49654e+06 1.67705e+06 4.30289e+06 -13455.5 1.65812e+06 491808 
4.49178e+06 1.68864e+06 4.29288e+06 -10815.9 1.65355e+06 490412 
4.49219e+06 1.68233e+06 4.29821e+06 -11039.5 1.65606e+06 491461 
4.49761e+06 1.67967e+06 4.30004e+06 -13012.6 1.65781e+06 491479 
4.49781e+06 1.67316e+06 4.30588e+06 -14121.4 1.66113e+06 492662 
2.12878e+06 5.05436e+06 2.0104e+06 1.0357e+06 -514123 -1.99956e+06 
2.11967e+06 5.05464e+06 2.01303e+06 1.039e+06 -516599 -1.99955e+06 
2.11287e+06 5.06023e+06 2.0093e+06 1.03967e+06 -519014 -2.00228e+06 
2.10683e+06 5.05991e+06 2.01192e+06 1.04222e+06 -520272 -2.00136e+06 
2.12319e+06 5.05511e+06 2.01086e+06 1.03837e+06 -516031 -1.99943e+06 
2.11593e+06 5.05518e+06 2.01351e+06 1.04114e+06 -517706 -1.99903e+06 
2.11024e+06 5.06062e+06 2.00993e+06 1.04179e+06 -519442 -2.00152e+06 
2.10286e+06 5.0604e+06 2.01251e+06 1.04457e+06 -521423 -2.00105e+06 
2.89156e+06 4.14129e+06 3.73051e+06 593014 -123579 1.342e+06 
2.89433e+06 4.14564e+06 3.72701e+06 592941 -123498 1.34087e+06 
2.89399e+06 4.13413e+06 3.73865e+06 592966 -123407 1.33845e+06 
2.89688e+06 4.13846e+06 3.73501e+06 592969 -123426 1.33735e+06 
2.89167e+06 4.14142e+06 3.73029e+06 592888 -123291 1.34199e+06 
2.89442e+06 4.14595e+06 3.72658e+06 592914 -123350 1.34069e+06 
2.89383e+06 4.13389e+06 3.73935e+06 592959 -123228 1.33778e+06 
2.89655e+06 4.13827e+06 3.73605e+06 592859 -123109 1.33672e+06 
3.78794e+06 3.55813e+06 3.52386e+06 417508 641548 396051 
3.79093e+06 3.56148e+06 3.52139e+06 417502 641528 397150 
3.78864e+06 3.55608e+06 3.52554e+06 417526 641588 393869 
3.79132e+06 3.55942e+06 3.52357e+06 417517 641557 395141 
3.78807e+06 3.55886e+06 3.52288e+06 417498 641535 396212 
3.79076e+06 3.56199e+06 3.52148e+06 417489 641499 398490 
3.78849e+06 3.55636e+06 3.52578e+06 417522 641569 394796 
3.79128e+06 3.56007e+06 3.52298e+06 417517 641548 395020 
3.29366e+06 4.11521e+06 3.06894e+06 -565653 -521685 -1.29206e+06 
3.2971e+06 4.11904e+06 3.06517e+06 -565280 -522206 -1.29286e+06 
3.29694e+06 4.10829e+06 3.07574e+06 -565377 -522622 -1.29478e+06 
3.30057e+06 4.11205e+06 3.07182e+06 -565351 -522651 -1.29549e+06 
3.29383e+06 4.11515e+06 3.06895e+06 -565083 -523039 -1.29217e+06 
3.29726e+06 4.11914e+06 3.0649e+06 -565124 -522938 -1.29319e+06 
3.29697e+06 4.108e+06 3.07624e+06 -565356 -523568 -1.29542e+06 
3.30051e+06 4.11174e+06 3.07268e+06 -564884 -524248 -1.29599e+06 
3.79947e+06 3.88709e+06 2.78904e+06 -20559.1 1.08413e+06 -86832.6 
3.80337e+06 3.89017e+06 2.7857e+06 -20611.2 1.08408e+06 -85941.6 
3.80013e+06 3.88541e+06 2.79054e+06 -19965.9 1.08535e+06 -87900.3 
3.80373e+06 3.88855e+06 2.78751e+06 -20151.9 1.0854e+06 -87096.2 
3.79961e+06 3.88748e+06 2.7883e+06 -21077.2 1.08242e+06 -86913.1 
3.8034e+06 3.89037e+06 2.78565e+06 -21309.4 1.08249e+06 -85224.4 
3.80016e+06 3.88546e+06 2.7906e+06 -20065.8 1.08414e+06 -87376.1 
3.80376e+06 3.88889e+06 2.78704e+06 -20090.9 1.08409e+06 -87288.3 
4.14117e+06 4.47405e+06 2.17772e+06 -106163 -1.005e+06 1.96095e+06 
4.14522e+06 4.47771e+06 2.17321e+06 -105876 -1.0054e+06 1.96029e+06 
4.14541e+06 4.46677e+06 2.18373e+06 -105823 -1.00529e+06 1.95858e+06 
4.14963e+06 4.4703e+06 2.17928e+06 -106146 -1.00483e+06 1.95809e+06 
4.14122e+06 4.47401e+06 2.17768e+06 -105434 -1.00671e+06 1.96096e+06 
4.14528e+06 4.47767e+06 2.17318e+06 -105737 -1.00627e+06 1.96029e+06 
4.14547e+06 4.46674e+06 2.18365e+06 -105804 -1.00635e+06 1.9586e+06 
4.1497e+06 4.47027e+06 2.1792e+06 -105510 -1.00675e+06 1.95811e+06 
4.26353e+06 3.09084e+06 4.03486e+06 -1.16513e+06 -2.16772e+06 -132218 
4.26817e+06 3.09379e+06 4.03077e+06 -1.16494e+06 -2.16783e+06 -131284 
4.2646e+06 3.08835e+06 4.03715e+06 -1.16547e+06 -2.16821e+06 -133065 
4.2689e+06 3.09159e+06 4.03289e+06 -1.16561e+06 -2.16807e+06 -132924 
4.26359e+06 3.09078e+06 4.03486e+06 -1.16571e+06 -2.16972e+06 -132213 
4.26822e+06 3.09374e+06 4.03072e+06 -1.16585e+06 -2.16957e+06 -131348 
4.26465e+06 3.08831e+06 4.03709e+06 -1.16558e+06 -2.16955e+06 -133108 
4.26896e+06 3.09152e+06 4.03287e+06 -1.16541e+06 -2.16965e+06 -132904 
1.89003e+06 5.63385e+06 3.82196e+06 305355 1.15961e+06 -77016.3 
1.89347e+06 5.6379e+06 3.81782e+06 305436 1.15944e+06 -78033.8 
1.89333e+06 5.6265e+06 3.82937e+06 305531 1.15999e+06 -80229.3 
1.89687e+06 5.63033e+06 3.82563e+06 305060 1.16063e+06 -80965.5 
1.88996e+06 5.63372e+06 3.82202e+06 305951 1.15823e+06 -76925.8 
1.89342e+06 5.63762e+06 3.81811e+06 305581 1.15872e+06 -77808.6 
1.89341e+06 5.62661e+06 3.82891e+06 305592 1.15907e+06 -79698.4 
1.89704e+06 5.63044e+06 3.82487e+06 305601 1.15904e+06 -80490.5 
3.63788e+06 4.67415e+06 3.25436e+06 -857423 -483674 1.24614e+06 
3.64161e+06 4.67715e+06 3.25165e+06 -857052 -483558 1.24795e+06 
3.63819e+06 4.6722e+06 3.25652e+06 -858487 -485345 1.24499e+06 
3.64173e+06 4.6757e+06 3.25295e+06 -858437 -485160 1.24515e+06 
3.63781e+06 4.67365e+06 3.25492e+06 -857934 -485299 1.24605e+06 
3.64164e+06 4.67682e+06 3.25156e+06 -857838 -485100 1.24702e+06 
3.63822e+06 4.67201e+06 3.25635e+06 -858659 -486517 1.24435e+06 
3.64178e+06 4.67523e+06 3.25329e+06 -858363 -486404 1.24526e+06 
4.55012e+06 3.03802e+06 3.96175e+06 1.039e+06 1.13434e+06 -709024 
4.55311e+06 3.04239e+06 3.95793e+06 1.03899e+06 1.13438e+06 -709451 
4.55242e+06 3.03143e+06 3.96872e+06 1.03864e+06 1.13424e+06 -712579 
4.55531e+06 3.03581e+06 3.96502e+06 1.03882e+06 1.13406e+06 -712936 
4.55026e+06 3.03921e+06 3.96027e+06 1.0389e+06 1.13505e+06 -708655 
4.55311e+06 3.04366e+06 3.95669e+06 1.03915e+06 1.13479e+06 -708595 
4.55223e+06 3.03215e+06 3.96843e+06 1.03863e+06 1.13461e+06 -712241 
4.55509e+06 3.03668e+06 3.96457e+06 1.03856e+06 1.1347e+06 -713132 
3.23682e+06 5.55569e+06 1.55107e+06 -385969 433421 4312.59 
3.23994e+06 5.55863e+06 1.54932e+06 -386175 433946 5412.38 
3.23532e+06 5.55999e+06 1.54617e+06 -386567 432247 6750.74 
3.23842e+06 5.56354e+06 1.54314e+06 -386620 432410 6362.82 
3.23684e+06 5.55622e+06 1.55024e+06 -386229 432443 5216.31 
3.24018e+06 5.5594e+06 1.54752e+06 -386306 432681 5549.13 
3.23534e+06 5.5605e+06 1.54521e+06 -386421 431277 6683.28 
3.23836e+06 5.5637e+06 1.54293e+06 -386590 431695 7025.6 
2.64503e+06 3.98375e+06 3.17398e+06 -887552 -621652 -1.0751e+06 
2.64805e+06 3.98813e+06 3.17007e+06 -887515 -621728 -1.07564e+06 
2.64743e+06 3.97699e+06 3.18111e+06 -887126 -621591 -1.07861e+06 
2.6504e+06 3.98139e+06 3.17728e+06 -887317 -621425 -1.0791e+06 
2.64521e+06 3.98485e+06 3.17253e+06 -887418 -622447 -1.07478e+06 
2.64812e+06 3.98934e+06 3.16879e+06 -887683 -622189 -1.07491e+06 
2.64731e+06 3.97765e+06 3.18079e+06 -887095 -622020 -1.07838e+06 
2.65023e+06 3.98219e+06 3.17687e+06 -886993 -622167 -1.07933e+06 
3.70993e+06 5.01626e+06 1.98324e+06 -581178 368842 478017 
3.71324e+06 5.01928e+06 1.98079e+06 -581101 368493 478309 
3.70836e+06 5.02057e+06 1.97797e+06 -581036 370085 479067 
3.71132e+06 5.02359e+06 1.97601e+06 -580898 369546 479371 
3.70995e+06 5.01577e+06 1.98412e+06 -581363 367908 477187 
3.71302e+06 5.01851e+06 1.98277e+06 -581197 367238 478251 
3.70837e+06 5.02007e+06 1.97903e+06 -580898 369142 479150 
3.71142e+06 5.02348e+06 1.97623e+06 -580836 368877 478717 
4.28353e+06 3.67623e+06 1.91849e+06 -681316 1.24956e+06 -1.14116e+06 
4.28757e+06 3.67986e+06 1.91415e+06 -681166 1.24937e+06 -1.14128e+06 
4.28677e+06 3.66994e+06 1.92398e+06 -680952 1.24957e+06 -1.14345e+06 
4.29067e+06 3.67364e+06 1.91968e+06 -681309 1.24997e+06 -1.14378e+06 
4.28363e+06 3.67662e+06 1.91785e+06 -681154 1.24777e+06 -1.14101e+06 
4.28764e+06 3.68025e+06 1.91364e+06 -681584 1.24827e+06 -1.14094e+06 
4.28678e+06 3.67011e+06 1.92383e+06 -680906 1.24863e+06 -1.14329e+06 
4.29066e+06 3.6739e+06 1.91944e+06 -680707 1.24838e+06 -1.14384e+06 
5.03013e+06 2.60918e+06 3.46566e+06 -596149 -539545 -1.07203e+06 
5.03462e+06 2.61213e+06 3.4617e+06 -596143 -539589 -1.07177e+06 
5.02706e+06 2.614e+06 3.46173e+06 -596261 -538535 -1.07078e+06 
5.03123e+06 2.61712e+06 3.45787e+06 -596026 -539067 -1.07085e+06 
5.03029e+06 2.60893e+06 3.46586e+06 -596554 -541118 -1.07237e+06 
5.03477e+06 2.61178e+06 3.46221e+06 -596276 -541763 -1.07183e+06 
5.02726e+06 2.61377e+06 3.46191e+06 -595880 -540237 -1.07075e+06 
5.03139e+06 2.61704e+06 3.45781e+06 -595891 -540215 -1.0711e+06 
4.34407e+06 4.00366e+06 3.30356e+06 -481369 -1.14576e+06 1.01903e+06 
4.34801e+06 4.00738e+06 3.2993e+06 -480937 -1.14623e+06 1.01906e+06 
4.34725e+06 3.99702e+06 3.30969e+06 -481650 -1.14655e+06 1.01663e+06 
4.35108e+06 4.00086e+06 3.30528e+06 -481868 -1.14627e+06 1.01605e+06 
4.34409e+06 4.00318e+06 3.30411e+06 -481170 -1.14749e+06 1.01889e+06 
4.34806e+06 4.00689e+06 3.29973e+06 -481333 -1.14726e+06 1.01871e+06 
4.34735e+06 3.99676e+06 3.30974e+06 -481603 -1.14746e+06 1.01649e+06 
4.35122e+06 4.00052e+06 3.30541e+06 -481248 -1.14783e+06 1.01613e+06 
2.65484e+06 5.29501e+06 3.28548e+06 417197 -1.01241e+06 -756223 
2.65944e+06 5.29782e+06 3.2817e+06 417001 -1.01193e+06 -755471 
2.65241e+06 5.29888e+06 3.2824e+06 416483 -1.01312e+06 -754856 
2.65664e+06 5.30209e+06 3.27825e+06 416518 -1.01317e+06 -755004 
2.65484e+06 5.29513e+06 3.28526e+06 416614 -1.01408e+06 -755988 
2.65944e+06 5.29803e+06 3.28125e+06 416640 -1.01409e+06 -755473 
2.65238e+06 5.29901e+06 3.28216e+06 416756 -1.01481e+06 -754904 
2.65665e+06 5.30211e+06 3.27819e+06 416586 -1.01441e+06 -754829 
4.99128e+06 4.35851e+06 3.89346e+06 1.78705e+06 -2.10979e+06 27179.7 
4.99681e+06 4.35835e+06 3.8971e+06 1.78878e+06 -2.11514e+06 26237.2 
4.99913e+06 4.35208e+06 3.90582e+06 1.7892e+06 -2.11899e+06 27836.6 
5.00331e+06 4.353e+06 3.90646e+06 1.79052e+06 -2.12206e+06 26181.9 
4.99371e+06 4.35706e+06 3.8989e+06 1.78838e+06 -2.11461e+06 26151.5 
4.99854e+06 4.35749e+06 3.9003e+06 1.78982e+06 -2.1183e+06 24998.5 
5.00043e+06 4.35164e+06 3.90759e+06 1.79024e+06 -2.12103e+06 26542.5 
5.00514e+06 4.35212e+06 3.90988e+06 1.79173e+06 -2.12539e+06 25212 
2.29505e+06 6.18682e+06 1.67921e+06 348065 518318 -1.26818e+06 
2.29655e+06 6.1939e+06 1.6725e+06 348398 519082 -1.26989e+06 
2.29181e+06 6.19498e+06 1.66982e+06 346955 520076 -1.26802e+06 
2.29368e+06 6.20215e+06 1.66251e+06 346904 521186 -1.26978e+06 
2.29517e+06 6.18171e+06 1.68471e+06 348370 516911 -1.26676e+06 
2.29673e+06 6.18967e+06 1.67646e+06 348194 518386 -1.26868e+06 
2.29228e+06 6.19112e+06 1.67243e+06 346290 519751 -1.26672e+06 
2.29397e+06 6.198e+06 1.66623e+06 346789 520333 -1.26849e+06 
5.60146e+06 4.31724e+06 3.52591e+06 401721 -220255 359392 
5.60711e+06 4.3177e+06 3.52619e+06 399829 -216519 358132 
5.6099e+06 4.31196e+06 3.53267e+06 399256 -213675 359722 
5.61554e+06 4.31253e+06 3.53364e+06 397298 -209270 358262 
5.59802e+06 4.31839e+06 3.52195e+06 403517 -225092 360575 
5.60474e+06 4.31838e+06 3.52392e+06 401215 -219665 359453 
5.60819e+06 4.31228e+06 3.53151e+06 400614 -215666 361073 
5.61303e+06 4.3132e+06 3.53123e+06 398882 -212575 359343 
3.05628e+06 6.62893e+06 285451 -441310 -2.16863e+06 -1.40684e+06 
3.05767e+06 6.63616e+06 278655 -441600 -2.16955e+06 -1.4084e+06 
3.05295e+06 6.63739e+06 275980 -440148 -2.17059e+06 -1.4066e+06 
3.05469e+06 6.64476e+06 268566 -440047 -2.1719e+06 -1.40819e+06 
3.05654e+06 6.62353e+06 291053 -441678 -2.16699e+06 -1.40555e+06 
3.05795e+06 6.63175e+06 282667 -441442 -2.1687e+06 -1.40728e+06 
3.0535e+06 6.63342e+06 278643 -439516 -2.17014e+06 -1.40538e+06 
3.05508e+06 6.64041e+06 272358 -439977 -2.17087e+06 -1.40701e+06 
4.95319e+06 4.14005e+06 2.57512e+06 -398975 466178 1.23087e+06 
4.95966e+06 4.14038e+06 2.57148e+06 -399417 466793 1.2315e+06 
4.96324e+06 4.13432e+06 2.57509e+06 -399423 467377 1.23363e+06 
4.96922e+06 4.13495e+06 2.57156e+06 -399286 468227 1.23391e+06 
4.9512e+06 4.14064e+06 2.57534e+06 -399734 465194 1.2305e+06 
4.95834e+06 4.14072e+06 2.57172e+06 -399553 466179 1.23143e+06 
4.96234e+06 4.13447e+06 2.57537e+06 -398761 467221 1.23371e+06 
4.96781e+06 4.13531e+06 2.57182e+06 -399231 467636 1.23373e+06 
3.11561e+06 6.47339e+06 1.2013e+06 242933 1.13118e+06 -1.56545e+06 
3.11729e+06 6.47773e+06 1.19698e+06 242291 1.13107e+06 -1.56618e+06 
3.10932e+06 6.48083e+06 1.19642e+06 243253 1.13054e+06 -1.56529e+06 
3.1115e+06 6.4849e+06 1.19201e+06 243501 1.12964e+06 -1.56599e+06 
3.11593e+06 6.47196e+06 1.20248e+06 242479 1.13309e+06 -1.56511e+06 
3.11748e+06 6.47654e+06 1.19787e+06 242813 1.13188e+06 -1.56588e+06 
3.10948e+06 6.47973e+06 1.19701e+06 244669 1.13088e+06 -1.56496e+06 
3.11173e+06 6.48374e+06 1.1928e+06 243868 1.13078e+06 -1.56567e+06 
4.88238e+06 4.61045e+06 2.4416e+06 232906 1.08724e+06 179089 
4.88992e+06 4.61048e+06 2.43809e+06 232489 1.08571e+06 180360 
4.89364e+06 4.60452e+06 2.44167e+06 231400 1.08423e+06 182820 
4.89929e+06 4.60541e+06 2.43815e+06 231745 1.08347e+06 182947 
4.88529e+06 4.6095e+06 2.44127e+06 231893 1.08573e+06 179805 
4.8919e+06 4.6099e+06 2.4377e+06 232172 1.08471e+06 180585 
4.89503e+06 4.60419e+06 2.44123e+06 231909 1.08376e+06 182784 
4.90138e+06 4.60478e+06 2.43776e+06 231606 1.08248e+06 183346 
2.62499e+06 5.88605e+06 2.23539e+06 1.16952e+06 1.56494e+06 -635480 
2.62684e+06 5.89102e+06 2.23025e+06 1.16889e+06 1.56633e+06 -635980 
2.61991e+06 5.89376e+06 2.22908e+06 1.16683e+06 1.56739e+06 -634536 
2.62229e+06 5.89811e+06 2.22453e+06 1.16747e+06 1.56764e+06 -635154 
2.62482e+06 5.88783e+06 2.23365e+06 1.16855e+06 1.5667e+06 -635701 
2.62678e+06 5.89247e+06 2.22894e+06 1.16901e+06 1.56701e+06 -636221 
2.61983e+06 5.89503e+06 2.22819e+06 1.16792e+06 1.56763e+06 -634865 
2.62217e+06 5.89951e+06 2.22334e+06 1.16745e+06 1.56867e+06 -635420 
3.19416e+06 5.84896e+06 3.24712e+06 796714 -2.70867e+06 -2.74089e+06 
3.19624e+06 5.8539e+06 3.24373e+06 796813 -2.70872e+06 -2.74464e+06 
3.19756e+06 5.84693e+06 3.25356e+06 796875 -2.70881e+06 -2.74198e+06 
3.19902e+06 5.85254e+06 3.25061e+06 797006 -2.70889e+06 -2.74588e+06 
3.19493e+06 5.84512e+06 3.24692e+06 796558 -2.70857e+06 -2.73757e+06 
3.19656e+06 5.85116e+06 3.24439e+06 796717 -2.70867e+06 -2.74156e+06 
3.19749e+06 5.84463e+06 3.2553e+06 796811 -2.70878e+06 -2.73894e+06 
3.19927e+06 5.84954e+06 3.25149e+06 796898 -2.70882e+06 -2.74305e+06 
3.92733e+06 6.2533e+06 2.32902e+06 892666 -1.78186e+06 2.77723e+06 
3.92909e+06 6.25978e+06 2.32712e+06 892971 -1.78173e+06 2.7868e+06 
3.92728e+06 6.26008e+06 2.32925e+06 893199 -1.78165e+06 2.79478e+06 
3.92892e+06 6.26711e+06 2.32779e+06 893575 -1.78151e+06 2.80596e+06 
3.92767e+06 6.24761e+06 2.32847e+06 892237 -1.78199e+06 2.76473e+06 
3.9293e+06 6.25564e+06 2.32713e+06 892704 -1.78183e+06 2.77896e+06 
3.92756e+06 6.25684e+06 2.32933e+06 893041 -1.78171e+06 2.78977e+06 
3.92923e+06 6.26296e+06 2.32731e+06 893295 -1.7816e+06 2.79746e+06 
5.23831e+06 4.72832e+06 1.08599e+06 -920541 -243334 235846 
5.24204e+06 4.73113e+06 1.08243e+06 -922493 -243056 234025 
5.24617e+06 4.72297e+06 1.08987e+06 -922604 -241202 236498 
5.2494e+06 4.72626e+06 1.08653e+06 -924869 -240448 234555 
5.23736e+06 4.72679e+06 1.08634e+06 -917932 -244309 237219 
5.24139e+06 4.72997e+06 1.0831e+06 -920600 -243272 235498 
5.24568e+06 4.72185e+06 1.09106e+06 -920923 -240762 238082 
5.24865e+06 4.72496e+06 1.08736e+06 -922761 -240831 235831 
3.5013e+06 5.79125e+06 2.58268e+06 1.71981e+06 -891335 280724 
3.50547e+06 5.79543e+06 2.57771e+06 1.72211e+06 -890730 283574 
3.5043e+06 5.79475e+06 2.57791e+06 1.72442e+06 -890263 287063 
3.50871e+06 5.79912e+06 2.57277e+06 1.72779e+06 -889777 290277 
3.4993e+06 5.7887e+06 2.58532e+06 1.71541e+06 -891650 277031 
3.50413e+06 5.79342e+06 2.57974e+06 1.71961e+06 -891167 281431 
3.50349e+06 5.79305e+06 2.57938e+06 1.72338e+06 -890582 285858 
3.50731e+06 5.79717e+06 2.57464e+06 1.72521e+06 -890076 287855 
5.09461e+06 3.65738e+06 2.85302e+06 514079 1.01873e+06 857543 
5.09956e+06 3.65902e+06 2.84923e+06 514081 1.01849e+06 857068 
5.10444e+06 3.64968e+06 2.85584e+06 514009 1.0184e+06 858759 
5.10848e+06 3.6518e+06 2.8521e+06 513726 1.01886e+06 857897 
5.09448e+06 3.65729e+06 2.85302e+06 515606 1.01792e+06 857619 
5.09949e+06 3.65892e+06 2.84926e+06 515209 1.01835e+06 857155 
5.10442e+06 3.64956e+06 2.85591e+06 515188 1.01887e+06 858850 
5.1084e+06 3.65169e+06 2.85214e+06 515125 1.01854e+06 857967 
2.59793e+06 6.71425e+06 1.91213e+06 838893 1.83417e+06 -1.09896e+06 
2.60157e+06 6.71736e+06 1.90761e+06 838108 1.83457e+06 -1.09802e+06 
2.59913e+06 6.71707e+06 1.90793e+06 837448 1.83467e+06 -1.09612e+06 
2.60262e+06 6.72011e+06 1.90361e+06 838194 1.83447e+06 -1.09564e+06 
2.59795e+06 6.7142e+06 1.91209e+06 835858 1.83538e+06 -1.09898e+06 
2.6016e+06 6.71731e+06 1.90757e+06 836712 1.83505e+06 -1.09802e+06 
2.59917e+06 6.71701e+06 1.90789e+06 837466 1.83498e+06 -1.09611e+06 
2.60265e+06 6.72005e+06 1.90357e+06 836774 1.83526e+06 -1.09565e+06 
3.5589e+06 5.46557e+06 2.95964e+06 465894 162612 -1.39094e+06 
3.56313e+06 5.46854e+06 2.95626e+06 468084 161512 -1.3925e+06 
3.56696e+06 5.45953e+06 2.96478e+06 468433 159148 -1.39052e+06 
3.57019e+06 5.46269e+06 2.96088e+06 469852 159191 -1.39254e+06 
3.55982e+06 5.46661e+06 2.9594e+06 468153 161414 -1.39217e+06 
3.56378e+06 5.46939e+06 2.95566e+06 469666 161129 -1.3938e+06 
3.56749e+06 5.46045e+06 2.96364e+06 469821 159434 -1.39188e+06 
3.57095e+06 5.46365e+06 2.96012e+06 471674 158612 -1.39365e+06 
2.92391e+06 6.9485e+06 741745 -1.17789e+06 -646620 262472 
2.92857e+06 6.95353e+06 735741 -1.18203e+06 -646750 266599 
2.92766e+06 6.95349e+06 734990 -1.18579e+06 -647081 270855 
2.9314e+06 6.9578e+06 729996 -1.18755e+06 -647380 272707 
2.92583e+06 6.95125e+06 738675 -1.18225e+06 -646647 265927 
2.92987e+06 6.95566e+06 733405 -1.18449e+06 -647008 268594 
2.92848e+06 6.95526e+06 733315 -1.18678e+06 -647289 271960 
2.93276e+06 6.95986e+06 727821 -1.1901e+06 -647485 274962 
3.01806e+07 1.69205e+07 3.24977e+07 20990.3 20527.1 5.11275e+06 
3.01883e+07 1.69373e+07 3.24839e+07 22622.3 21279.8 5.11958e+06 
3.0183e+07 1.69028e+07 3.25125e+07 15930.4 19385.4 5.09244e+06 
3.01906e+07 1.69202e+07 3.24988e+07 18546.1 19936.3 5.10062e+06 
3.01805e+07 1.69291e+07 3.24919e+07 22785.3 21743.1 5.11813e+06 
3.0188e+07 1.69479e+07 3.24775e+07 26088.4 22251.4 5.12979e+06 
3.01824e+07 1.69108e+07 3.25085e+07 17787.8 20256.4 5.09886e+06 
3.01897e+07 1.69274e+07 3.2495e+07 18975.7 20964 5.10301e+06 
3.15376e+07 1.77945e+07 3.08494e+07 2.33544e+06 2.26797e+06 4.01297e+06 
3.15287e+07 1.77841e+07 3.08536e+07 2.33904e+06 2.26382e+06 4.02024e+06 
3.15264e+07 1.7812e+07 3.08206e+07 2.3399e+06 2.25896e+06 4.02007e+06 
3.1518e+07 1.78008e+07 3.08296e+07 2.34214e+06 2.25746e+06 4.02783e+06 
3.15383e+07 1.77918e+07 3.08439e+07 2.3387e+06 2.26342e+06 4.01951e+06 
3.15288e+07 1.77816e+07 3.08516e+07 2.34119e+06 2.26121e+06 4.02628e+06 
3.1526e+07 1.78088e+07 3.0822e+07 2.34186e+06 2.25771e+06 4.02535e+06 
3.15179e+07 1.77978e+07 3.08281e+07 2.34487e+06 2.25444e+06 4.03282e+06 
2.79866e+07 1.3573e+07 3.90832e+07 2.71701e+06 4.27432e+06 4.31953e+06 
2.79778e+07 1.35574e+07 3.90975e+07 2.71923e+06 4.27536e+06 4.31386e+06 
2.79878e+07 1.3557e+07 3.90985e+07 2.72285e+06 4.27617e+06 4.30293e+06 
2.7979e+07 1.35409e+07 3.9113e+07 2.72667e+06 4.27687e+06 4.29626e+06 
2.79874e+07 1.35821e+07 3.90765e+07 2.71174e+06 4.27285e+06 4.32801e+06 
2.79784e+07 1.35648e+07 3.90917e+07 2.71657e+06 4.27346e+06 4.31824e+06 
2.79877e+07 1.35633e+07 3.90947e+07 2.72235e+06 4.27453e+06 4.30478e+06 
2.79792e+07 1.35477e+07 3.91087e+07 2.72392e+06 4.27551e+06 4.30155e+06 
2.91171e+07 2.08898e+07 3.00536e+07 2.22529e+06 1.16821e+07 3.38446e+06 
2.91076e+07 2.08806e+07 3.00597e+07 2.22305e+06 1.16847e+07 3.39087e+06 
2.91056e+07 2.09066e+07 3.00308e+07 2.22244e+06 1.1688e+07 3.39018e+06 
2.90975e+07 2.08968e+07 3.00352e+07 2.21975e+06 1.16916e+07 3.39728e+06 
2.91165e+07 2.08913e+07 3.00608e+07 2.22808e+06 1.16772e+07 3.37819e+06 
2.91076e+07 2.08821e+07 3.00629e+07 2.22487e+06 1.16818e+07 3.38493e+06 
2.91062e+07 2.09089e+07 3.00305e+07 2.22412e+06 1.16863e+07 3.385e+06 
2.90977e+07 2.08987e+07 3.0038e+07 2.22211e+06 1.16882e+07 3.3925e+06 
2.44275e+07 2.57229e+07 2.96838e+07 -5.08483e+06 -5.14548e+06 -2.11465e+06 
2.44394e+07 2.5734e+07 2.96696e+07 -5.08467e+06 -5.14624e+06 -2.11229e+06 
2.44286e+07 2.57112e+07 2.96967e+07 -5.08141e+06 -5.14547e+06 -2.1233e+06 
2.44404e+07 2.57225e+07 2.96825e+07 -5.08389e+06 -5.1451e+06 -2.12176e+06 
2.44283e+07 2.57247e+07 2.96816e+07 -5.08697e+06 -5.14822e+06 -2.11386e+06 
2.44404e+07 2.57362e+07 2.96672e+07 -5.08999e+06 -5.14761e+06 -2.11041e+06 
2.44293e+07 2.57128e+07 2.96951e+07 -5.08342e+06 -5.14693e+06 -2.12221e+06 
2.44408e+07 2.57241e+07 2.96811e+07 -5.08301e+06 -5.14759e+06 -2.12163e+06 
2.88313e+07 1.90477e+07 3.02928e+07 771539 4.09403e+06 7.93218e+06 
2.88461e+07 1.90546e+07 3.02809e+07 772729 4.09345e+06 7.93035e+06 
2.88111e+07 1.90681e+07 3.02802e+07 769294 4.09869e+06 7.93315e+06 
2.88242e+07 1.9076e+07 3.02687e+07 771236 4.09604e+06 7.93049e+06 
2.88327e+07 1.90478e+07 3.02925e+07 773476 4.09091e+06 7.93075e+06 
2.88479e+07 1.90545e+07 3.02814e+07 775815 4.08774e+06 7.9292e+06 
2.88126e+07 1.90684e+07 3.02797e+07 772400 4.09484e+06 7.93222e+06 
2.88253e+07 1.90766e+07 3.02675e+07 773540 4.09479e+06 7.92913e+06 
2.08986e+07 2.61862e+07 3.35902e+07 -6.65839e+06 -5.64805e+06 -3.41426e+06 
2.08869e+07 2.6174e+07 3.36049e+07 -6.66248e+06 -5.6476e+06 -3.41858e+06 
2.08981e+07 2.61736e+07 3.36048e+07 -6.6677e+06 -5.64813e+06 -3.42699e+06 
2.08872e+07 2.61618e+07 3.36189e+07 -6.66787e+06 -5.64892e+06 -3.42793e+06 
2.08976e+07 2.61828e+07 3.35933e+07 -6.66451e+06 -5.6488e+06 -3.41716e+06 
2.08862e+07 2.61711e+07 3.36076e+07 -6.6651e+06 -5.64971e+06 -3.4199e+06 
2.08979e+07 2.6171e+07 3.36066e+07 -6.66715e+06 -5.6501e+06 -3.42735e+06 
2.08865e+07 2.61592e+07 3.36209e+07 -6.67045e+06 -5.64991e+06 -3.42966e+06 
2.97102e+07 2.21225e+07 2.67704e+07 1.27868e+06 -2.19527e+06 6.88267e+06 
2.97252e+07 2.21294e+07 2.67595e+07 1.27646e+06 -2.19192e+06 6.88121e+06 
2.96911e+07 2.21428e+07 2.67572e+07 1.27971e+06 -2.19928e+06 6.88465e+06 
2.97038e+07 2.21513e+07 2.6745e+07 1.27864e+06 -2.19905e+06 6.88168e+06 
2.97092e+07 2.21223e+07 2.67702e+07 1.28031e+06 -2.19866e+06 6.8841e+06 
2.97239e+07 2.21294e+07 2.67584e+07 1.27918e+06 -2.19789e+06 6.88241e+06 
2.969e+07 2.21424e+07 2.67572e+07 1.28258e+06 -2.2034e+06 6.88557e+06 
2.97031e+07 2.21505e+07 2.67458e+07 1.28074e+06 -2.20059e+06 6.88299e+06 