Li2MnO2F

96 atoms

4 atom types

0.0 12.3256  xlo xhi
0.0 8.707 ylo yhi
0.0 8.308 zlo zhi

Masses

1 19
2 16
3 7
4 55

Atoms

1 1 1 -1	10.25131989	6.46722126	2.101648092
2 1 1 -1	2.166460991	6.319962978	6.229056835
3 1 1 -1	2.153836489	6.265150547	2.082455635
4 1 1 -1	6.133473396	4.413269043	4.031909943
5 1 1 -1	2.087903738	4.524041653	8.259040833
6 1 1 -1	6.071840763	6.580021381	2.08838129
7 1 1 -1	6.094293118	0.027085891	8.28503418
8 1 1 -1	8.197525978	2.164607286	0.122682817
9 1 1 -1	0.046142522	8.664640427	6.216492176
10 1 1 -1	12.25780773	0.195830777	2.085345984
11 1 1 -1	6.255694866	0.006566173	4.180263519
12 1 1 -1	10.2215147	4.56477499	4.178977966
13 1 1 -1	10.21859074	6.610403061	6.209171295
14 1 1 -1	2.124165535	4.551573753	4.210432053
15 1 1 -1	8.086627007	0.087693237	6.264705658
16 1 1 -1	6.155465126	4.396897316	0.127627179
17 1 2 -2	8.215407372	2.237695456	4.008250237
18 1 2 -2	0.052502111	2.259835005	4.257848263
19 1 2 -2	10.25591755	8.644239426	0.103814453
20 1 2 -2	2.076476336	8.610789299	0.020457711
21 1 2 -2	4.143429279	0.275880843	2.202339649
22 1 2 -2	10.33136463	2.236428261	2.073487282
23 1 2 -2	0.18542856	6.525646687	4.112159729
24 1 2 -2	4.080925941	2.132123709	4.061149597
25 1 2 -2	1.929138541	2.22207284	1.963555694
26 1 2 -2	6.136281967	2.308692694	6.262669086
27 1 2 -2	7.96475029	6.543697357	4.124886513
28 1 2 -2	12.0703373	4.366649151	6.240336418
29 1 2 -2	8.242406845	0.262728244	2.072403669
30 1 2 -2	4.119581699	6.54206419	0.013819528
31 1 2 -2	6.219990253	2.194329262	2.063312531
32 1 2 -2	6.116732597	6.220607281	6.233515739
33 1 2 -2	2.115009785	2.228488207	6.342942238
34 1 2 -2	12.16209698	4.252093315	2.059130907
35 1 2 -2	4.136852264	6.7669487	4.152418613
36 1 2 -2	7.910980225	6.585638523	0.045223571
37 1 2 -2	4.274569988	4.157292843	6.213204384
38 1 2 -2	8.344100952	4.177567959	2.052425146
39 1 2 -2	2.004745007	8.563802719	4.122572899
40 1 2 -2	8.203012466	4.293598652	6.233745098
41 1 2 -2	10.26129913	8.638249397	4.045958042
42 1 2 -2	4.165410519	0.288564235	6.055165291
43 1 2 -2	0.129153654	2.156793356	8.163103104
44 1 2 -2	3.972771645	2.16424489	0.105114594
45 1 2 -2	0.214010268	6.57137394	0.042757537
46 1 2 -2	10.22509003	4.553744316	8.283871651
47 1 2 -2	4.115045547	4.144619465	2.098232985
48 1 2 -2	10.31184769	2.146137238	6.230222702
49 1 3 1	12.31088924	4.456707478	4.217702389
50 1 3 1	2.12629962	0.110054761	6.235245705
51 1 3 1	0.062828176	6.266569138	2.070508003
52 1 3 1	1.970824599	1.978479624	4.154946327
53 1 3 1	12.3205471	6.356002808	6.234855175
54 1 3 1	4.05148983	8.689789772	0.110259056
55 1 3 1	2.169247866	4.308073044	6.233107567
56 1 3 1	6.221791744	2.118270397	0.033293638
57 1 3 1	6.177722454	0.199127689	2.039795637
58 1 3 1	4.075782299	4.345049858	0.104460061
59 1 3 1	6.26527071	2.178397894	4.114477158
60 1 3 1	6.176493168	0.311480701	6.267033577
61 1 3 1	4.066518784	4.187895775	4.07486105
62 1 3 1	8.246006966	4.384932995	4.11819458
63 1 3 1	6.11267519	4.164682388	2.066717386
64 1 3 1	4.136848927	6.307714939	6.256344318
65 1 3 1	12.28700447	4.54792881	8.247928619
66 1 3 1	0.022962987	8.550361633	8.289951324
67 1 3 1	8.250475883	8.556969643	0.069475457
68 1 3 1	8.254694939	8.644043922	4.068757534
69 1 3 1	10.28870106	1.986539483	8.267873764
70 1 3 1	2.14937973	4.262263298	2.08699131
71 1 3 1	0.005907586	8.562672615	4.168790817
72 1 3 1	8.209188461	2.232364893	6.040849209
73 1 3 1	10.24969006	1.976372361	4.19047308
74 1 3 1	4.123542309	6.1907444	2.061826944
75 1 3 1	8.248885155	4.584745407	0.032281928
76 1 3 1	8.130652428	6.418118477	2.088979483
77 1 3 1	10.44241047	6.599069595	8.301066399
78 1 3 1	10.37001324	6.635700703	4.157649994
79 1 3 1	2.126368046	0.142299667	2.073449373
80 1 3 1	8.157347679	6.388676167	6.228218555
81 1 4 3	10.2414093	4.281040668	1.932591438
82 1 4 3	10.17690086	4.233627319	6.375081539
83 1 4 3	10.16683388	0.011780177	2.073817492
84 1 4 3	12.31331348	2.313722372	2.165081739
85 1 4 3	4.15177393	2.214750051	6.220342159
86 1 4 3	6.2329669	4.231720924	6.253140926
87 1 4 3	8.164235115	2.206526995	2.185730696
88 1 4 3	2.089604616	6.700612068	0.00599829
89 1 4 3	0.030021131	2.301821947	6.166252613
90 1 4 3	6.144119263	6.569719315	4.241872787
91 1 4 3	6.080647469	6.602097988	8.225570679
92 1 4 3	2.033989191	6.657396793	4.150153637
93 1 4 3	4.167007923	2.247734308	2.085394144
94 1 4 3	4.052467346	0.13169305	4.118825436
95 1 4 3	2.027749538	2.031863451	8.307844162
96 1 4 3	10.21233273	0.05948982	6.232580185