title

36   atoms
12   bonds

4   atom types
1   bond types


0.0 2.728934 xlo xhi
0.0 5.030429 ylo yhi
0.0 14.052717 zlo zhi

0.00000 0.00000 0.00000 xy xz yz 

Masses

1   6.94100 # Li
2  58.69340 # Ni
3  14.39910 # O core
4   1.59990 # O shell

Atoms

1    1    1     1.0000   2.727747   1.438204   2.349308
2    2    1     1.0000   1.363297   3.948708   2.347685
3    3    1     1.0000   1.366062   0.424733   11.702302
4    4    1     1.0000   0.001516   2.934431   11.701033
5    5    1     1.0000   0.000051   4.712762   7.026636
6    6    1     1.0000   1.364519   2.197568   7.026628
7    7    2     3.0000   0.000139   4.683161   14.052431
8    8    2     3.0000   1.364624   2.167905   0.000270
9    9    2     3.0000   1.364042   0.577557   4.687894
10   10   2     3.0000   2.728513   3.092912   4.688995
11   11   2     3.0000   0.000575   1.291842   9.363606
12   12   2     3.0000   1.365049   3.807374   9.364981
13   13   3    -2.0000   2.727951   4.889431   3.646999
14   13   4     0.0000   2.727951   4.889431   3.646999
15   14   3    -2.0000   1.363318   2.374577   3.649814
16   14   4     0.0000   1.363318   2.374577   3.649814
17   15   3    -2.0000   0.001017   4.524857   10.408150
18   15   4     0.0000   0.001017   4.524857   10.408150
19   16   3    -2.0000   1.365642   2.009420   10.405230
20   16   4     0.0000   1.365642   2.009420   10.405230
21   17   3    -2.0000   1.364657   0.572836   8.323997
22   17   4     0.0000   1.364657   0.572836   8.323997
23   18   3    -2.0000   0.000196   3.088832   8.324236
24   18   4     0.0000   0.000196   3.088832   8.324236
25   19   3    -2.0000   1.351825   0.631955   1.043702
26   19   4     0.0000   1.351825   0.631955   1.043702
27   20   3    -2.0000   2.710370   3.125415   1.046914
28   20   4     0.0000   2.710370   3.125415   1.046914
29   21   3    -2.0000   0.018465   1.213965   13.004929
30   21   4     0.0000   0.018465   1.213965   13.004929
31   22   3    -2.0000   1.377055   3.707329   13.008332
32   22   4     0.0000   1.377055   3.707329   13.008332
33   23   3    -2.0000   2.728875   1.297532   5.729115
34   23   4     0.0000   2.728875   1.297532   5.729115
35   24   3    -2.0000   1.364407   3.813524   5.729422
36   24   4     0.0000   1.364407   3.813524   5.729422

Bonds

1    1    13   14  
2    1    15   16  
3    1    17   18  
4    1    19   20  
5    1    21   22  
6    1    23   24  
7    1    25   26  
8    1    27   28  
9    1    29   30  
10   1    31   32  
11   1    33   34  
12   1    35   36  

