Li3 Ni3 O6

192   atoms
0   bonds

3   atom types
0   bond types

0.0 10.927743 xlo xhi
0.0 10.392599 ylo yhi
0.0 14.014189 zlo zhi

Masses

1   6.94100 # Li 
2  58.69340 # Ni 
3  15.99940 # O 

Atoms

  1    1    1    1.000   0.910644   1.732101   2.335703
  2    2    1    1.000   0.910644   4.330250   2.335703
  3    3    1    1.000   0.910644   6.928400   2.335703
  4    4    1    1.000   0.910644   9.526550   2.335703
  5    5    1    1.000   3.642580   1.732101   2.335703
  6    6    1    1.000   3.642580   4.330250   2.335703
  7    7    1    1.000   3.642580   6.928400   2.335703
  8    8    1    1.000   3.642580   9.526550   2.335703
  9    9    1    1.000   6.374516   1.732101   2.335703
 10   10    1    1.000   6.374516   4.330250   2.335703
 11   11    1    1.000   6.374516   6.928400   2.335703
 12   12    1    1.000   6.374516   9.526550   2.335703
 13   13    1    1.000   9.106452   1.732101   2.335703
 14   14    1    1.000   9.106452   4.330250   2.335703
 15   15    1    1.000   9.106452   6.928400   2.335703
 16   16    1    1.000   9.106452   9.526550   2.335703
 17   17    1    1.000   0.000000   0.000000   7.007094
 18   18    1    1.000   0.000000   2.598150   7.007094
 19   19    1    1.000   0.000000   5.196299   7.007094
 20   20    1    1.000   0.000000   7.794449   7.007094
 21   21    1    1.000   2.731936   0.000000   7.007094
 22   22    1    1.000   2.731936   2.598150   7.007094
 23   23    1    1.000   2.731936   5.196299   7.007094
 24   24    1    1.000   2.731936   7.794449   7.007094
 25   25    1    1.000   5.463871   0.000000   7.007094
 26   26    1    1.000   5.463871   2.598150   7.007094
 27   27    1    1.000   5.463871   5.196299   7.007094
 28   28    1    1.000   5.463871   7.794449   7.007094
 29   29    1    1.000   8.195807   0.000000   7.007094
 30   30    1    1.000   8.195807   2.598150   7.007094
 31   31    1    1.000   8.195807   5.196299   7.007094
 32   32    1    1.000   8.195807   7.794449   7.007094
 33   33    1    1.000   1.821291   0.866049   11.678500
 34   34    1    1.000   1.821291   3.464199   11.678500
 35   35    1    1.000   1.821291   6.062348   11.678500
 36   36    1    1.000   1.821291   8.660498   11.678500
 37   37    1    1.000   4.553227   0.866049   11.678500
 38   38    1    1.000   4.553227   3.464199   11.678500
 39   39    1    1.000   4.553227   6.062348   11.678500
 40   40    1    1.000   4.553227   8.660498   11.678500
 41   41    1    1.000   7.285163   0.866049   11.678500
 42   42    1    1.000   7.285163   3.464199   11.678500
 43   43    1    1.000   7.285163   6.062348   11.678500
 44   44    1    1.000   7.285163   8.660498   11.678500
 45   45    1    1.000   10.017099   0.866049   11.678500
 46   46    1    1.000   10.017099   3.464199   11.678500
 47   47    1    1.000   10.017099   6.062348   11.678500
 48   48    1    1.000   10.017099   8.660498   11.678500
 49   49    2    3.000   0.000000   0.000000   0.000000
 50   50    2    3.000   0.000000   2.598150   0.000000
 51   51    2    3.000   0.000000   5.196299   0.000000
 52   52    2    3.000   0.000000   7.794449   0.000000
 53   53    2    3.000   2.731936   0.000000   0.000000
 54   54    2    3.000   2.731936   2.598150   0.000000
 55   55    2    3.000   2.731936   5.196299   0.000000
 56   56    2    3.000   2.731936   7.794449   0.000000
 57   57    2    3.000   5.463871   0.000000   0.000000
 58   58    2    3.000   5.463871   2.598150   0.000000
 59   59    2    3.000   5.463871   5.196299   0.000000
 60   60    2    3.000   5.463871   7.794449   0.000000
 61   61    2    3.000   8.195807   0.000000   0.000000
 62   62    2    3.000   8.195807   2.598150   0.000000
 63   63    2    3.000   8.195807   5.196299   0.000000
 64   64    2    3.000   8.195807   7.794449   0.000000
 65   65    2    3.000   1.821291   0.866049   4.671391
 66   66    2    3.000   1.821291   3.464199   4.671391
 67   67    2    3.000   1.821291   6.062348   4.671391
 68   68    2    3.000   1.821291   8.660498   4.671391
 69   69    2    3.000   4.553227   0.866049   4.671391
 70   70    2    3.000   4.553227   3.464199   4.671391
 71   71    2    3.000   4.553227   6.062348   4.671391
 72   72    2    3.000   4.553227   8.660498   4.671391
 73   73    2    3.000   7.285163   0.866049   4.671391
 74   74    2    3.000   7.285163   3.464199   4.671391
 75   75    2    3.000   7.285163   6.062348   4.671391
 76   76    2    3.000   7.285163   8.660498   4.671391
 77   77    2    3.000   10.017099   0.866049   4.671391
 78   78    2    3.000   10.017099   3.464199   4.671391
 79   79    2    3.000   10.017099   6.062348   4.671391
 80   80    2    3.000   10.017099   8.660498   4.671391
 81   81    2    3.000   0.910644   1.732101   9.342796
 82   82    2    3.000   0.910644   4.330250   9.342796
 83   83    2    3.000   0.910644   6.928400   9.342796
 84   84    2    3.000   0.910644   9.526550   9.342796
 85   85    2    3.000   3.642580   1.732101   9.342796
 86   86    2    3.000   3.642580   4.330250   9.342796
 87   87    2    3.000   3.642580   6.928400   9.342796
 88   88    2    3.000   3.642580   9.526550   9.342796
 89   89    2    3.000   6.374516   1.732101   9.342796
 90   90    2    3.000   6.374516   4.330250   9.342796
 91   91    2    3.000   6.374516   6.928400   9.342796
 92   92    2    3.000   6.374516   9.526550   9.342796
 93   93    2    3.000   9.106452   1.732101   9.342796
 94   94    2    3.000   9.106452   4.330250   9.342796
 95   95    2    3.000   9.106452   6.928400   9.342796
 96   96    2    3.000   9.106452   9.526550   9.342796
 97   97    3   -2.000  -0.068309  -0.040783   3.628904
 98   98    3   -2.000  -0.068309   2.557367   3.628904
 99   99    3   -2.000  -0.068309   5.155516   3.628904
100  100    3   -2.000  -0.068309   7.753666   3.628904
101  101    3   -2.000   2.663627  -0.040783   3.628904
102  102    3   -2.000   2.663627   2.557367   3.628904
103  103    3   -2.000   2.663627   5.155516   3.628904
104  104    3   -2.000   2.663627   7.753666   3.628904
105  105    3   -2.000   5.395563  -0.040783   3.628904
106  106    3   -2.000   5.395563   2.557367   3.628904
107  107    3   -2.000   5.395563   5.155516   3.628904
108  108    3   -2.000   5.395563   7.753666   3.628904
109  109    3   -2.000   8.127499  -0.040783   3.628904
110  110    3   -2.000   8.127499   2.557367   3.628904
111  111    3   -2.000   8.127499   5.155516   3.628904
112  112    3   -2.000   8.127499   7.753666   3.628904
113  113    3   -2.000   1.889600   0.906832   1.042487
114  114    3   -2.000   1.889600   3.504982   1.042487
115  115    3   -2.000   1.889600   6.103131   1.042487
116  116    3   -2.000   1.889600   8.701281   1.042487
117  117    3   -2.000   4.621536   0.906832   1.042487
118  118    3   -2.000   4.621536   3.504982   1.042487
119  119    3   -2.000   4.621536   6.103131   1.042487
120  120    3   -2.000   4.621536   8.701281   1.042487
121  121    3   -2.000   7.353471   0.906832   1.042487
122  122    3   -2.000   7.353471   3.504982   1.042487
123  123    3   -2.000   7.353471   6.103131   1.042487
124  124    3   -2.000   7.353471   8.701281   1.042487
125  125    3   -2.000   10.085407   0.906832   1.042487
126  126    3   -2.000   10.085407   3.504982   1.042487
127  127    3   -2.000   10.085407   6.103131   1.042487
128  128    3   -2.000   10.085407   8.701281   1.042487
129  129    3   -2.000   1.752983   0.825266   8.300295
130  130    3   -2.000   1.752983   3.423416   8.300295
131  131    3   -2.000   1.752983   6.021565   8.300295
132  132    3   -2.000   1.752983   8.619715   8.300295
133  133    3   -2.000   4.484919   0.825266   8.300295
134  134    3   -2.000   4.484919   3.423416   8.300295
135  135    3   -2.000   4.484919   6.021565   8.300295
136  136    3   -2.000   4.484919   8.619715   8.300295
137  137    3   -2.000   7.216854   0.825266   8.300295
138  138    3   -2.000   7.216854   3.423416   8.300295
139  139    3   -2.000   7.216854   6.021565   8.300295
140  140    3   -2.000   7.216854   8.619715   8.300295
141  141    3   -2.000   9.948790   0.825266   8.300295
142  142    3   -2.000   9.948790   3.423416   8.300295
143  143    3   -2.000   9.948790   6.021565   8.300295
144  144    3   -2.000   9.948790   8.619715   8.300295
145  145    3   -2.000   0.978953   1.772884   5.713893
146  146    3   -2.000   0.978953   4.371033   5.713893
147  147    3   -2.000   0.978953   6.969183   5.713893
148  148    3   -2.000   0.978953   9.567333   5.713893
149  149    3   -2.000   3.710889   1.772884   5.713893
150  150    3   -2.000   3.710889   4.371033   5.713893
151  151    3   -2.000   3.710889   6.969183   5.713893
152  152    3   -2.000   3.710889   9.567333   5.713893
153  153    3   -2.000   6.442824   1.772884   5.713893
154  154    3   -2.000   6.442824   4.371033   5.713893
155  155    3   -2.000   6.442824   6.969183   5.713893
156  156    3   -2.000   6.442824   9.567333   5.713893
157  157    3   -2.000   9.174760   1.772884   5.713893
158  158    3   -2.000   9.174760   4.371033   5.713893
159  159    3   -2.000   9.174760   6.969183   5.713893
160  160    3   -2.000   9.174760   9.567333   5.713893
161  161    3   -2.000   0.842336   1.691318   12.971702
162  162    3   -2.000   0.842336   4.289467   12.971702
163  163    3   -2.000   0.842336   6.887617   12.971702
164  164    3   -2.000   0.842336   9.485767   12.971702
165  165    3   -2.000   3.574272   1.691318   12.971702
166  166    3   -2.000   3.574272   4.289467   12.971702
167  167    3   -2.000   3.574272   6.887617   12.971702
168  168    3   -2.000   3.574272   9.485767   12.971702
169  169    3   -2.000   6.306207   1.691318   12.971702
170  170    3   -2.000   6.306207   4.289467   12.971702
171  171    3   -2.000   6.306207   6.887617   12.971702
172  172    3   -2.000   6.306207   9.485767   12.971702
173  173    3   -2.000   9.038143   1.691318   12.971702
174  174    3   -2.000   9.038143   4.289467   12.971702
175  175    3   -2.000   9.038143   6.887617   12.971702
176  176    3   -2.000   9.038143   9.485767   12.971702
177  177    3   -2.000   0.068309   0.040783   10.385284
178  178    3   -2.000   0.068309   2.638933   10.385284
179  179    3   -2.000   0.068309   5.237082   10.385284
180  180    3   -2.000   0.068309   7.835232   10.385284
181  181    3   -2.000   2.800244   0.040783   10.385284
182  182    3   -2.000   2.800244   2.638933   10.385284
183  183    3   -2.000   2.800244   5.237082   10.385284
184  184    3   -2.000   2.800244   7.835232   10.385284
185  185    3   -2.000   5.532180   0.040783   10.385284
186  186    3   -2.000   5.532180   2.638933   10.385284
187  187    3   -2.000   5.532180   5.237082   10.385284
188  188    3   -2.000   5.532180   7.835232   10.385284
189  189    3   -2.000   8.264116   0.040783   10.385284
190  190    3   -2.000   8.264116   2.638933   10.385284
191  191    3   -2.000   8.264116   5.237082   10.385284
192  192    3   -2.000   8.264116   7.835232   10.385284

