Li3 Ni3 O6

288   atoms
96   bonds

4   atom types
1   bond types

0.0 10.927743 xlo xhi
0.0 10.392599 ylo yhi
0.0 14.014189 zlo zhi

Masses

1   6.94100 # Li_core
2  58.69340 # Ni_core
3  14.39946 # O_core
4   1.59994 # O_shell

Atoms

   1    1   1   1.000   0.910644   1.732101   2.335703
   2    2   1   1.000   0.910644   4.330250   2.335703
   3    3   1   1.000   0.910644   6.928400   2.335703
   4    4   1   1.000   0.910644   9.526550   2.335703
   5    5   1   1.000   3.642580   1.732101   2.335703
   6    6   1   1.000   3.642580   4.330250   2.335703
   7    7   1   1.000   3.642580   6.928400   2.335703
   8    8   1   1.000   3.642580   9.526550   2.335703
   9    9   1   1.000   6.374516   1.732101   2.335703
  10   10   1   1.000   6.374516   4.330250   2.335703
  11   11   1   1.000   6.374516   6.928400   2.335703
  12   12   1   1.000   6.374516   9.526550   2.335703
  13   13   1   1.000   9.106452   1.732101   2.335703
  14   14   1   1.000   9.106452   4.330250   2.335703
  15   15   1   1.000   9.106452   6.928400   2.335703
  16   16   1   1.000   9.106452   9.526550   2.335703
  17   17   1   1.000   0.000000   0.000000   7.007094
  18   18   1   1.000   0.000000   2.598150   7.007094
  19   19   1   1.000   0.000000   5.196299   7.007094
  20   20   1   1.000   0.000000   7.794449   7.007094
  21   21   1   1.000   2.731936   0.000000   7.007094
  22   22   1   1.000   2.731936   2.598150   7.007094
  23   23   1   1.000   2.731936   5.196299   7.007094
  24   24   1   1.000   2.731936   7.794449   7.007094
  25   25   1   1.000   5.463871   0.000000   7.007094
  26   26   1   1.000   5.463871   2.598150   7.007094
  27   27   1   1.000   5.463871   5.196299   7.007094
  28   28   1   1.000   5.463871   7.794449   7.007094
  29   29   1   1.000   8.195807   0.000000   7.007094
  30   30   1   1.000   8.195807   2.598150   7.007094
  31   31   1   1.000   8.195807   5.196299   7.007094
  32   32   1   1.000   8.195807   7.794449   7.007094
  33   33   1   1.000   1.821291   0.866049  11.678500
  34   34   1   1.000   1.821291   3.464199  11.678500
  35   35   1   1.000   1.821291   6.062348  11.678500
  36   36   1   1.000   1.821291   8.660498  11.678500
  37   37   1   1.000   4.553227   0.866049  11.678500
  38   38   1   1.000   4.553227   3.464199  11.678500
  39   39   1   1.000   4.553227   6.062348  11.678500
  40   40   1   1.000   4.553227   8.660498  11.678500
  41   41   1   1.000   7.285163   0.866049  11.678500
  42   42   1   1.000   7.285163   3.464199  11.678500
  43   43   1   1.000   7.285163   6.062348  11.678500
  44   44   1   1.000   7.285163   8.660498  11.678500
  45   45   1   1.000  10.017099   0.866049  11.678500
  46   46   1   1.000  10.017099   3.464199  11.678500
  47   47   1   1.000  10.017099   6.062348  11.678500
  48   48   1   1.000  10.017099   8.660498  11.678500
  49   49   2   3.000   0.000000   0.000000   0.000000
  50   50   2   3.000   0.000000   2.598150   0.000000
  51   51   2   3.000   0.000000   5.196299   0.000000
  52   52   2   3.000   0.000000   7.794449   0.000000
  53   53   2   3.000   2.731936   0.000000   0.000000
  54   54   2   3.000   2.731936   2.598150   0.000000
  55   55   2   3.000   2.731936   5.196299   0.000000
  56   56   2   3.000   2.731936   7.794449   0.000000
  57   57   2   3.000   5.463871   0.000000   0.000000
  58   58   2   3.000   5.463871   2.598150   0.000000
  59   59   2   3.000   5.463871   5.196299   0.000000
  60   60   2   3.000   5.463871   7.794449   0.000000
  61   61   2   3.000   8.195807   0.000000   0.000000
  62   62   2   3.000   8.195807   2.598150   0.000000
  63   63   2   3.000   8.195807   5.196299   0.000000
  64   64   2   3.000   8.195807   7.794449   0.000000
  65   65   2   3.000   1.821291   0.866049   4.671391
  66   66   2   3.000   1.821291   3.464199   4.671391
  67   67   2   3.000   1.821291   6.062348   4.671391
  68   68   2   3.000   1.821291   8.660498   4.671391
  69   69   2   3.000   4.553227   0.866049   4.671391
  70   70   2   3.000   4.553227   3.464199   4.671391
  71   71   2   3.000   4.553227   6.062348   4.671391
  72   72   2   3.000   4.553227   8.660498   4.671391
  73   73   2   3.000   7.285163   0.866049   4.671391
  74   74   2   3.000   7.285163   3.464199   4.671391
  75   75   2   3.000   7.285163   6.062348   4.671391
  76   76   2   3.000   7.285163   8.660498   4.671391
  77   77   2   3.000  10.017099   0.866049   4.671391
  78   78   2   3.000  10.017099   3.464199   4.671391
  79   79   2   3.000  10.017099   6.062348   4.671391
  80   80   2   3.000  10.017099   8.660498   4.671391
  81   81   2   3.000   0.910644   1.732101   9.342796
  82   82   2   3.000   0.910644   4.330250   9.342796
  83   83   2   3.000   0.910644   6.928400   9.342796
  84   84   2   3.000   0.910644   9.526550   9.342796
  85   85   2   3.000   3.642580   1.732101   9.342796
  86   86   2   3.000   3.642580   4.330250   9.342796
  87   87   2   3.000   3.642580   6.928400   9.342796
  88   88   2   3.000   3.642580   9.526550   9.342796
  89   89   2   3.000   6.374516   1.732101   9.342796
  90   90   2   3.000   6.374516   4.330250   9.342796
  91   91   2   3.000   6.374516   6.928400   9.342796
  92   92   2   3.000   6.374516   9.526550   9.342796
  93   93   2   3.000   9.106452   1.732101   9.342796
  94   94   2   3.000   9.106452   4.330250   9.342796
  95   95   2   3.000   9.106452   6.928400   9.342796
  96   96   2   3.000   9.106452   9.526550   9.342796
  97   97   3   0.960  -0.068309  -0.040783   3.628904
  98   97   4  -2.960  -0.068309  -0.040783   3.628904
  99   98   3   0.960  -0.068309   2.557367   3.628904
 100   98   4  -2.960  -0.068309   2.557367   3.628904
 101   99   3   0.960  -0.068309   5.155516   3.628904
 102   99   4  -2.960  -0.068309   5.155516   3.628904
 103  100   3   0.960  -0.068309   7.753666   3.628904
 104  100   4  -2.960  -0.068309   7.753666   3.628904
 105  101   3   0.960   2.663627  -0.040783   3.628904
 106  101   4  -2.960   2.663627  -0.040783   3.628904
 107  102   3   0.960   2.663627   2.557367   3.628904
 108  102   4  -2.960   2.663627   2.557367   3.628904
 109  103   3   0.960   2.663627   5.155516   3.628904
 110  103   4  -2.960   2.663627   5.155516   3.628904
 111  104   3   0.960   2.663627   7.753666   3.628904
 112  104   4  -2.960   2.663627   7.753666   3.628904
 113  105   3   0.960   5.395563  -0.040783   3.628904
 114  105   4  -2.960   5.395563  -0.040783   3.628904
 115  106   3   0.960   5.395563   2.557367   3.628904
 116  106   4  -2.960   5.395563   2.557367   3.628904
 117  107   3   0.960   5.395563   5.155516   3.628904
 118  107   4  -2.960   5.395563   5.155516   3.628904
 119  108   3   0.960   5.395563   7.753666   3.628904
 120  108   4  -2.960   5.395563   7.753666   3.628904
 121  109   3   0.960   8.127499  -0.040783   3.628904
 122  109   4  -2.960   8.127499  -0.040783   3.628904
 123  110   3   0.960   8.127499   2.557367   3.628904
 124  110   4  -2.960   8.127499   2.557367   3.628904
 125  111   3   0.960   8.127499   5.155516   3.628904
 126  111   4  -2.960   8.127499   5.155516   3.628904
 127  112   3   0.960   8.127499   7.753666   3.628904
 128  112   4  -2.960   8.127499   7.753666   3.628904
 129  113   3   0.960   1.889600   0.906832   1.042487
 130  113   4  -2.960   1.889600   0.906832   1.042487
 131  114   3   0.960   1.889600   3.504982   1.042487
 132  114   4  -2.960   1.889600   3.504982   1.042487
 133  115   3   0.960   1.889600   6.103131   1.042487
 134  115   4  -2.960   1.889600   6.103131   1.042487
 135  116   3   0.960   1.889600   8.701281   1.042487
 136  116   4  -2.960   1.889600   8.701281   1.042487
 137  117   3   0.960   4.621536   0.906832   1.042487
 138  117   4  -2.960   4.621536   0.906832   1.042487
 139  118   3   0.960   4.621536   3.504982   1.042487
 140  118   4  -2.960   4.621536   3.504982   1.042487
 141  119   3   0.960   4.621536   6.103131   1.042487
 142  119   4  -2.960   4.621536   6.103131   1.042487
 143  120   3   0.960   4.621536   8.701281   1.042487
 144  120   4  -2.960   4.621536   8.701281   1.042487
 145  121   3   0.960   7.353471   0.906832   1.042487
 146  121   4  -2.960   7.353471   0.906832   1.042487
 147  122   3   0.960   7.353471   3.504982   1.042487
 148  122   4  -2.960   7.353471   3.504982   1.042487
 149  123   3   0.960   7.353471   6.103131   1.042487
 150  123   4  -2.960   7.353471   6.103131   1.042487
 151  124   3   0.960   7.353471   8.701281   1.042487
 152  124   4  -2.960   7.353471   8.701281   1.042487
 153  125   3   0.960  10.085407   0.906832   1.042487
 154  125   4  -2.960  10.085407   0.906832   1.042487
 155  126   3   0.960  10.085407   3.504982   1.042487
 156  126   4  -2.960  10.085407   3.504982   1.042487
 157  127   3   0.960  10.085407   6.103131   1.042487
 158  127   4  -2.960  10.085407   6.103131   1.042487
 159  128   3   0.960  10.085407   8.701281   1.042487
 160  128   4  -2.960  10.085407   8.701281   1.042487
 161  129   3   0.960   1.752983   0.825266   8.300295
 162  129   4  -2.960   1.752983   0.825266   8.300295
 163  130   3   0.960   1.752983   3.423416   8.300295
 164  130   4  -2.960   1.752983   3.423416   8.300295
 165  131   3   0.960   1.752983   6.021565   8.300295
 166  131   4  -2.960   1.752983   6.021565   8.300295
 167  132   3   0.960   1.752983   8.619715   8.300295
 168  132   4  -2.960   1.752983   8.619715   8.300295
 169  133   3   0.960   4.484919   0.825266   8.300295
 170  133   4  -2.960   4.484919   0.825266   8.300295
 171  134   3   0.960   4.484919   3.423416   8.300295
 172  134   4  -2.960   4.484919   3.423416   8.300295
 173  135   3   0.960   4.484919   6.021565   8.300295
 174  135   4  -2.960   4.484919   6.021565   8.300295
 175  136   3   0.960   4.484919   8.619715   8.300295
 176  136   4  -2.960   4.484919   8.619715   8.300295
 177  137   3   0.960   7.216854   0.825266   8.300295
 178  137   4  -2.960   7.216854   0.825266   8.300295
 179  138   3   0.960   7.216854   3.423416   8.300295
 180  138   4  -2.960   7.216854   3.423416   8.300295
 181  139   3   0.960   7.216854   6.021565   8.300295
 182  139   4  -2.960   7.216854   6.021565   8.300295
 183  140   3   0.960   7.216854   8.619715   8.300295
 184  140   4  -2.960   7.216854   8.619715   8.300295
 185  141   3   0.960   9.948790   0.825266   8.300295
 186  141   4  -2.960   9.948790   0.825266   8.300295
 187  142   3   0.960   9.948790   3.423416   8.300295
 188  142   4  -2.960   9.948790   3.423416   8.300295
 189  143   3   0.960   9.948790   6.021565   8.300295
 190  143   4  -2.960   9.948790   6.021565   8.300295
 191  144   3   0.960   9.948790   8.619715   8.300295
 192  144   4  -2.960   9.948790   8.619715   8.300295
 193  145   3   0.960   0.978953   1.772884   5.713893
 194  145   4  -2.960   0.978953   1.772884   5.713893
 195  146   3   0.960   0.978953   4.371033   5.713893
 196  146   4  -2.960   0.978953   4.371033   5.713893
 197  147   3   0.960   0.978953   6.969183   5.713893
 198  147   4  -2.960   0.978953   6.969183   5.713893
 199  148   3   0.960   0.978953   9.567333   5.713893
 200  148   4  -2.960   0.978953   9.567333   5.713893
 201  149   3   0.960   3.710889   1.772884   5.713893
 202  149   4  -2.960   3.710889   1.772884   5.713893
 203  150   3   0.960   3.710889   4.371033   5.713893
 204  150   4  -2.960   3.710889   4.371033   5.713893
 205  151   3   0.960   3.710889   6.969183   5.713893
 206  151   4  -2.960   3.710889   6.969183   5.713893
 207  152   3   0.960   3.710889   9.567333   5.713893
 208  152   4  -2.960   3.710889   9.567333   5.713893
 209  153   3   0.960   6.442824   1.772884   5.713893
 210  153   4  -2.960   6.442824   1.772884   5.713893
 211  154   3   0.960   6.442824   4.371033   5.713893
 212  154   4  -2.960   6.442824   4.371033   5.713893
 213  155   3   0.960   6.442824   6.969183   5.713893
 214  155   4  -2.960   6.442824   6.969183   5.713893
 215  156   3   0.960   6.442824   9.567333   5.713893
 216  156   4  -2.960   6.442824   9.567333   5.713893
 217  157   3   0.960   9.174760   1.772884   5.713893
 218  157   4  -2.960   9.174760   1.772884   5.713893
 219  158   3   0.960   9.174760   4.371033   5.713893
 220  158   4  -2.960   9.174760   4.371033   5.713893
 221  159   3   0.960   9.174760   6.969183   5.713893
 222  159   4  -2.960   9.174760   6.969183   5.713893
 223  160   3   0.960   9.174760   9.567333   5.713893
 224  160   4  -2.960   9.174760   9.567333   5.713893
 225  161   3   0.960   0.842336   1.691318  12.971702
 226  161   4  -2.960   0.842336   1.691318  12.971702
 227  162   3   0.960   0.842336   4.289467  12.971702
 228  162   4  -2.960   0.842336   4.289467  12.971702
 229  163   3   0.960   0.842336   6.887617  12.971702
 230  163   4  -2.960   0.842336   6.887617  12.971702
 231  164   3   0.960   0.842336   9.485767  12.971702
 232  164   4  -2.960   0.842336   9.485767  12.971702
 233  165   3   0.960   3.574272   1.691318  12.971702
 234  165   4  -2.960   3.574272   1.691318  12.971702
 235  166   3   0.960   3.574272   4.289467  12.971702
 236  166   4  -2.960   3.574272   4.289467  12.971702
 237  167   3   0.960   3.574272   6.887617  12.971702
 238  167   4  -2.960   3.574272   6.887617  12.971702
 239  168   3   0.960   3.574272   9.485767  12.971702
 240  168   4  -2.960   3.574272   9.485767  12.971702
 241  169   3   0.960   6.306207   1.691318  12.971702
 242  169   4  -2.960   6.306207   1.691318  12.971702
 243  170   3   0.960   6.306207   4.289467  12.971702
 244  170   4  -2.960   6.306207   4.289467  12.971702
 245  171   3   0.960   6.306207   6.887617  12.971702
 246  171   4  -2.960   6.306207   6.887617  12.971702
 247  172   3   0.960   6.306207   9.485767  12.971702
 248  172   4  -2.960   6.306207   9.485767  12.971702
 249  173   3   0.960   9.038143   1.691318  12.971702
 250  173   4  -2.960   9.038143   1.691318  12.971702
 251  174   3   0.960   9.038143   4.289467  12.971702
 252  174   4  -2.960   9.038143   4.289467  12.971702
 253  175   3   0.960   9.038143   6.887617  12.971702
 254  175   4  -2.960   9.038143   6.887617  12.971702
 255  176   3   0.960   9.038143   9.485767  12.971702
 256  176   4  -2.960   9.038143   9.485767  12.971702
 257  177   3   0.960   0.068309   0.040783  10.385284
 258  177   4  -2.960   0.068309   0.040783  10.385284
 259  178   3   0.960   0.068309   2.638933  10.385284
 260  178   4  -2.960   0.068309   2.638933  10.385284
 261  179   3   0.960   0.068309   5.237082  10.385284
 262  179   4  -2.960   0.068309   5.237082  10.385284
 263  180   3   0.960   0.068309   7.835232  10.385284
 264  180   4  -2.960   0.068309   7.835232  10.385284
 265  181   3   0.960   2.800244   0.040783  10.385284
 266  181   4  -2.960   2.800244   0.040783  10.385284
 267  182   3   0.960   2.800244   2.638933  10.385284
 268  182   4  -2.960   2.800244   2.638933  10.385284
 269  183   3   0.960   2.800244   5.237082  10.385284
 270  183   4  -2.960   2.800244   5.237082  10.385284
 271  184   3   0.960   2.800244   7.835232  10.385284
 272  184   4  -2.960   2.800244   7.835232  10.385284
 273  185   3   0.960   5.532180   0.040783  10.385284
 274  185   4  -2.960   5.532180   0.040783  10.385284
 275  186   3   0.960   5.532180   2.638933  10.385284
 276  186   4  -2.960   5.532180   2.638933  10.385284
 277  187   3   0.960   5.532180   5.237082  10.385284
 278  187   4  -2.960   5.532180   5.237082  10.385284
 279  188   3   0.960   5.532180   7.835232  10.385284
 280  188   4  -2.960   5.532180   7.835232  10.385284
 281  189   3   0.960   8.264116   0.040783  10.385284
 282  189   4  -2.960   8.264116   0.040783  10.385284
 283  190   3   0.960   8.264116   2.638933  10.385284
 284  190   4  -2.960   8.264116   2.638933  10.385284
 285  191   3   0.960   8.264116   5.237082  10.385284
 286  191   4  -2.960   8.264116   5.237082  10.385284
 287  192   3   0.960   8.264116   7.835232  10.385284
 288  192   4  -2.960   8.264116   7.835232  10.385284

Bonds

   1     1    97    98
   2     1    99   100
   3     1   101   102
   4     1   103   104
   5     1   105   106
   6     1   107   108
   7     1   109   110
   8     1   111   112
   9     1   113   114
  10     1   115   116
  11     1   117   118
  12     1   119   120
  13     1   121   122
  14     1   123   124
  15     1   125   126
  16     1   127   128
  17     1   129   130
  18     1   131   132
  19     1   133   134
  20     1   135   136
  21     1   137   138
  22     1   139   140
  23     1   141   142
  24     1   143   144
  25     1   145   146
  26     1   147   148
  27     1   149   150
  28     1   151   152
  29     1   153   154
  30     1   155   156
  31     1   157   158
  32     1   159   160
  33     1   161   162
  34     1   163   164
  35     1   165   166
  36     1   167   168
  37     1   169   170
  38     1   171   172
  39     1   173   174
  40     1   175   176
  41     1   177   178
  42     1   179   180
  43     1   181   182
  44     1   183   184
  45     1   185   186
  46     1   187   188
  47     1   189   190
  48     1   191   192
  49     1   193   194
  50     1   195   196
  51     1   197   198
  52     1   199   200
  53     1   201   202
  54     1   203   204
  55     1   205   206
  56     1   207   208
  57     1   209   210
  58     1   211   212
  59     1   213   214
  60     1   215   216
  61     1   217   218
  62     1   219   220
  63     1   221   222
  64     1   223   224
  65     1   225   226
  66     1   227   228
  67     1   229   230
  68     1   231   232
  69     1   233   234
  70     1   235   236
  71     1   237   238
  72     1   239   240
  73     1   241   242
  74     1   243   244
  75     1   245   246
  76     1   247   248
  77     1   249   250
  78     1   251   252
  79     1   253   254
  80     1   255   256
  81     1   257   258
  82     1   259   260
  83     1   261   262
  84     1   263   264
  85     1   265   266
  86     1   267   268
  87     1   269   270
  88     1   271   272
  89     1   273   274
  90     1   275   276
  91     1   277   278
  92     1   279   280
  93     1   281   282
  94     1   283   284
  95     1   285   286
  96     1   287   288
