Li2MnO2F

12 atoms

3 atom types

0.0 2.90214339  xlo xhi
0.0 2.90214339 ylo yhi
0.0 14.36180373 zlo zhi

Masses

1 6.941
2 58.693
3 15.999

Atoms

1 1 1 1	10.25131989	6.46722126	2.101648092
2 1 1 1	2.166460991	6.319962978	6.229056835
3 1 1 1	2.153836489	6.265150547	2.082455635
4 1 2 3	6.133473396	4.413269043	4.031909943
5 1 2 3	2.087903738	4.524041653	8.259040833
6 1 2 3	6.071840763	6.580021381	2.08838129
7 1 3 -2	6.094293118	0.027085891	8.28503418
8 1 3 -2	8.197525978	2.164607286	0.122682817
9 1 3 -2	0.046142522	8.664640427	6.216492176
10 1 3 -2	12.25780773	0.195830777	2.085345984
11 1 3 -2	6.255694866	0.006566173	4.180263519
12 1 3 -2	10.2215147	4.56477499	4.178977966
