 vasp.5.4.1 05Feb16 (build Dec 03 2018 11:02:50) complex                        
  
 executed on           IFC91_ompi date 2019.11.26  12:24:41
 running on   24 total cores
 distrk:  each k-point on   24 cores,    1 groups
 distr:  one band on NCORES_PER_BAND=   1 cores,   24 groups


--------------------------------------------------------------------------------------------------------


 INCAR:
 POTCAR:    PAW_PBE Li 17Jan2003                  
 POTCAR:    PAW_PBE Ni 02Aug2007                  
 POTCAR:    PAW_PBE O 08Apr2002                   

 ----------------------------------------------------------------------------- 
|                                                                             |
|           W    W    AA    RRRRR   N    N  II  N    N   GGGG   !!!           |
|           W    W   A  A   R    R  NN   N  II  NN   N  G    G  !!!           |
|           W    W  A    A  R    R  N N  N  II  N N  N  G       !!!           |
|           W WW W  AAAAAA  RRRRR   N  N N  II  N  N N  G  GGG   !            |
|           WW  WW  A    A  R   R   N   NN  II  N   NN  G    G                |
|           W    W  A    A  R    R  N    N  II  N    N   GGGG   !!!           |
|                                                                             |
|      For optimal performance we recommend to set                            |
|        NCORE= 4 - approx SQRT( number of cores)                             |
|      NCORE specifies how many cores store one orbital (NPAR=cpu/NCORE).     |
|      This setting can  greatly improve the performance of VASP for DFT.     |
|      The default, NPAR=number of cores might be grossly inefficient         |
|      on modern multi-core architectures or massively parallel machines.     |
|      Do your own testing !!!!                                               |
|      Unfortunately you need to use the default for GW and RPA calculations. |
|      (for HF NCORE is supported but not extensively tested yet)             |
|                                                                             |
 ----------------------------------------------------------------------------- 

 POTCAR:    PAW_PBE Li 17Jan2003                  
   VRHFIN =Li: s1p0                                                             
   LEXCH  = PE                                                                  
   EATOM  =     5.3001 eV,    0.3895 Ry                                         
                                                                                
   TITEL  = PAW_PBE Li 17Jan2003                                                
   LULTRA =        F    use ultrasoft PP ?                                      
   IUNSCR =        1    unscreen: 0-lin 1-nonlin 2-no                           
   RPACOR =    1.500    partial core radius                                     
   POMASS =    7.010; ZVAL   =    1.000    mass and valenz                      
   RCORE  =    2.050    outmost cutoff radius                                   
   RWIGS  =    2.600; RWIGS  =    1.376    wigner-seitz radius (au A)           
   ENMAX  =  140.000; ENMIN  =  100.000 eV                                      
   ICORE  =        2    local potential                                         
   LCOR   =        T    correct aug charges                                     
   LPAW   =        T    paw PP                                                  
   EAUG   =  331.638                                                            
   DEXC   =    0.000                                                            
   RMAX   =    2.098    core radius for proj-oper                               
   RAUG   =    1.300    factor for augmentation sphere                          
   RDEP   =    2.094    radius for radial grids                                 
   RDEPT  =    1.810    core radius for aug-charge                              
                                                                                
   Atomic configuration                                                         
    4 entries                                                                   
     n  l   j            E        occ.                                          
     1  0  0.50       -51.8549   2.0000                                         
     2  0  0.50        -2.8742   1.0000                                         
     2  1  0.50        -1.3606   0.0000                                         
     3  2  1.50        -1.3606   0.0000                                         
   Description                                                                  
     l       E           TYP  RCUT    TYP  RCUT                                 
     0     -2.8742052     23  2.050                                             
     0     27.2116520     23  2.050                                             
     1     -1.3605826     23  2.050                                             
     2     -1.3605826     23  2.050                                             
  local pseudopotential read in
  partial core-charges read in
  partial kinetic energy density read in
  atomic valenz-charges read in
  non local Contribution for L=           0  read in
    real space projection operators read in
  non local Contribution for L=           0  read in
    real space projection operators read in
  non local Contribution for L=           1  read in
    real space projection operators read in
    PAW grid and wavefunctions read in
 
   number of l-projection  operators is LMAX  =           3
   number of lm-projection operators is LMMAX =           5
 
 POTCAR:    PAW_PBE Ni 02Aug2007                  
   VRHFIN =Ni:                                                                  
   LEXCH  = PE                                                                  
   EATOM  =  1077.6739 eV,   79.2068 Ry                                         
                                                                                
   TITEL  = PAW_PBE Ni 02Aug2007                                                
   LULTRA =        F    use ultrasoft PP ?                                      
   IUNSCR =        1    unscreen: 0-lin 1-nonlin 2-no                           
   RPACOR =    2.000    partial core radius                                     
   POMASS =   58.690; ZVAL   =   10.000    mass and valenz                      
   RCORE  =    2.300    outmost cutoff radius                                   
   RWIGS  =    2.430; RWIGS  =    1.286    wigner-seitz radius (au A)           
   ENMAX  =  269.532; ENMIN  =  202.149 eV                                      
   RCLOC  =    1.201    cutoff for local pot                                    
   LCOR   =        T    correct aug charges                                     
   LPAW   =        T    paw PP                                                  
   EAUG   =  544.565                                                            
   DEXC   =    0.000                                                            
   RMAX   =    2.357    core radius for proj-oper                               
   RAUG   =    1.300    factor for augmentation sphere                          
   RDEP   =    2.390    radius for radial grids                                 
   RDEPT  =    1.838    core radius for aug-charge                              
                                                                                
   Atomic configuration                                                         
    9 entries                                                                   
     n  l   j            E        occ.                                          
     1  0  0.50     -8206.4253   2.0000                                         
     2  0  0.50      -976.1748   2.0000                                         
     2  1  1.50      -839.0571   6.0000                                         
     3  0  0.50      -105.9991   2.0000                                         
     3  1  1.50       -66.4603   6.0000                                         
     3  2  2.50        -4.6458   9.0000                                         
     4  0  0.50        -4.4926   1.0000                                         
     4  1  1.50        -4.0817   0.0000                                         
     4  3  2.50        -1.3606   0.0000                                         
   Description                                                                  
     l       E           TYP  RCUT    TYP  RCUT                                 
     2     -4.6457903     23  2.300                                             
     2     -6.0063729     23  2.300                                             
     0     -4.4925590     23  2.300                                             
     0      5.0102601     23  2.300                                             
     1     -2.7211652     23  2.300                                             
     1     16.5183231     23  2.300                                             
  local pseudopotential read in
  partial core-charges read in
  partial kinetic energy density read in
  atomic valenz-charges read in
  non local Contribution for L=           2  read in
    real space projection operators read in
  non local Contribution for L=           2  read in
    real space projection operators read in
  non local Contribution for L=           0  read in
    real space projection operators read in
  non local Contribution for L=           0  read in
    real space projection operators read in
  non local Contribution for L=           1  read in
    real space projection operators read in
  non local Contribution for L=           1  read in
    real space projection operators read in
    PAW grid and wavefunctions read in
 
   number of l-projection  operators is LMAX  =           6
   number of lm-projection operators is LMMAX =          18
 
 POTCAR:    PAW_PBE O 08Apr2002                   
   VRHFIN =O: s2p4                                                              
   LEXCH  = PE                                                                  
   EATOM  =   432.3788 eV,   31.7789 Ry                                         
                                                                                
   TITEL  = PAW_PBE O 08Apr2002                                                 
   LULTRA =        F    use ultrasoft PP ?                                      
   IUNSCR =        1    unscreen: 0-lin 1-nonlin 2-no                           
   RPACOR =    1.200    partial core radius                                     
   POMASS =   16.000; ZVAL   =    6.000    mass and valenz                      
   RCORE  =    1.520    outmost cutoff radius                                   
   RWIGS  =    1.550; RWIGS  =    0.820    wigner-seitz radius (au A)           
   ENMAX  =  400.000; ENMIN  =  300.000 eV                                      
   ICORE  =        2    local potential                                         
   LCOR   =        T    correct aug charges                                     
   LPAW   =        T    paw PP                                                  
   EAUG   =  605.392                                                            
   DEXC   =    0.000                                                            
   RMAX   =    1.553    core radius for proj-oper                               
   RAUG   =    1.300    factor for augmentation sphere                          
   RDEP   =    1.550    radius for radial grids                                 
   RDEPT  =    1.329    core radius for aug-charge                              
                                                                                
   Atomic configuration                                                         
    4 entries                                                                   
     n  l   j            E        occ.                                          
     1  0  0.50      -514.6923   2.0000                                         
     2  0  0.50       -23.9615   2.0000                                         
     2  1  0.50        -9.0305   4.0000                                         
     3  2  1.50        -9.5241   0.0000                                         
   Description                                                                  
     l       E           TYP  RCUT    TYP  RCUT                                 
     0    -23.9615318     23  1.200                                             
     0     -9.5240782     23  1.200                                             
     1     -9.0304911     23  1.520                                             
     1      8.1634956     23  1.520                                             
     2     -9.5240782      7  1.500                                             
  local pseudopotential read in
  partial core-charges read in
  partial kinetic energy density read in
  kinetic energy density of atom read in
  atomic valenz-charges read in
  non local Contribution for L=           0  read in
    real space projection operators read in
  non local Contribution for L=           0  read in
    real space projection operators read in
  non local Contribution for L=           1  read in
    real space projection operators read in
  non local Contribution for L=           1  read in
    real space projection operators read in
    PAW grid and wavefunctions read in
 
   number of l-projection  operators is LMAX  =           4
   number of lm-projection operators is LMMAX =           8
 
 Optimization of the real space projectors (new method)

 maximal supplied QI-value         = 18.33
 optimisation between [QCUT,QGAM] = [ 11.36, 22.73] = [ 36.17,144.67] Ry 
 Optimized for a Real-space Cutoff    1.31 Angstroem

   l    n(q)    QCUT    max X(q) W(low)/X(q) W(high)/X(q)  e(spline) 
   0      9    11.365    33.825    0.58E-04    0.63E-04    0.64E-07
   0      9    11.365     8.944    0.32E-04    0.47E-04    0.49E-07
   1      8    11.365     4.214    0.52E-04    0.37E-04    0.48E-07
 Optimization of the real space projectors (new method)

 maximal supplied QI-value         = 16.25
 optimisation between [QCUT,QGAM] = [ 11.38, 22.75] = [ 36.24,144.96] Ry 
 Optimized for a Real-space Cutoff    1.56 Angstroem

   l    n(q)    QCUT    max X(q) W(low)/X(q) W(high)/X(q)  e(spline) 
   2     10    11.376    60.317    0.39E-04    0.36E-04    0.24E-06
   2     10    11.376    55.921    0.40E-04    0.37E-04    0.24E-06
   0     11    11.376    51.690    0.66E-04    0.39E-04    0.42E-06
   0     11    11.376    30.015    0.57E-04    0.36E-04    0.39E-06
   1     10    11.376    18.849    0.60E-04    0.19E-04    0.13E-06
   1     10    11.376    14.624    0.50E-04    0.17E-04    0.12E-06
 Optimization of the real space projectors (new method)

 maximal supplied QI-value         = 24.76
 optimisation between [QCUT,QGAM] = [ 11.39, 22.77] = [ 36.31,145.25] Ry 
 Optimized for a Real-space Cutoff    1.20 Angstroem

   l    n(q)    QCUT    max X(q) W(low)/X(q) W(high)/X(q)  e(spline) 
   0      8    11.387    20.381    0.89E-04    0.31E-03    0.27E-06
   0      8    11.387    15.268    0.93E-04    0.32E-03    0.29E-06
   1      8    11.387     5.964    0.53E-04    0.28E-03    0.29E-06
   1      8    11.387     5.382    0.37E-04    0.22E-03    0.26E-06

 ----------------------------------------------------------------------------- 
|                                                                             |
|  ADVICE TO THIS USER RUNNING 'VASP/VAMP'   (HEAR YOUR MASTER'S VOICE ...):  |
|                                                                             |
|      You enforced a specific xc-type in the INCAR file,                     |
|      a different type was found on the POTCAR file                          |
|          I HOPE YOU KNOW, WHAT YOU ARE  DOING                               |
|                                                                             |
 ----------------------------------------------------------------------------- 

  PAW_PBE Li 17Jan2003                  :
 energy of atom  1       EATOM=   -5.3001
 kinetic energy error for atom=    0.0000 (will be added to EATOM!!)
  PAW_PBE Ni 02Aug2007                  :
 energy of atom  2       EATOM=-1077.6739
 kinetic energy error for atom=    0.0030 (will be added to EATOM!!)
  PAW_PBE O 08Apr2002                   :
 energy of atom  3       EATOM= -432.3788
 kinetic energy error for atom=    0.0224 (will be added to EATOM!!)
 
 
 POSCAR: li3 ni3 o6                              
  positions in direct lattice
  velocities in cartesian coordinates
 exchange correlation table for  LEXCH =       14
   RHO(1)=    0.500       N(1)  =     2000
   RHO(2)=  100.500       N(2)  =     4000
 


--------------------------------------------------------------------------------------------------------


 ion  position               nearest neighbor table
   1  0.998  0.269  0.167-  20 2.03  13 2.03  19 2.11  14 2.11  14 2.12  19 2.12   2 2.71   2 2.76
                             8 2.83   9 2.84   9 2.84   8 2.84  10 2.88   7 2.88   2 3.22   2 3.26
   2  0.517  0.709  0.107-  20 1.54  20 1.62  19 1.92   8 2.04   7 2.30   7 2.35  14 2.49  22 2.57
                             1 2.71   1 2.76   1 3.22   1 3.26
   3  0.503  0.100  0.833-  22 2.03  16 2.03  21 2.11  15 2.11  15 2.11  21 2.12   7 2.83  11 2.84
                            11 2.84   7 2.84   4 2.86   4 2.86   4 2.86   4 2.86   8 2.88  12 2.88
   4  0.002  0.600  0.833-  21 2.03  15 2.03  16 2.11  22 2.11  16 2.12  22 2.12   8 2.83  12 2.84
                             8 2.84  12 2.84   3 2.86   3 2.86   3 2.86   3 2.86  11 2.88   7 2.88
   5  0.000  0.935  0.500-  18 2.04  23 2.04  24 2.10  17 2.10  24 2.11  17 2.11   9 2.84  12 2.84
                            12 2.84   9 2.84   6 2.86   6 2.86   6 2.86   6 2.86  10 2.87  11 2.87
   6  0.500  0.435  0.500-  17 2.04  24 2.04  23 2.10  18 2.10  23 2.11  18 2.11  10 2.84  11 2.84
                            11 2.84  10 2.84   5 2.86   5 2.86   5 2.86   5 2.86   9 2.87  12 2.87
   7  0.000  0.935  1.000-  22 1.86  19 1.86  19 1.86  22 1.86  21 2.07  20 2.07   2 2.30   2 2.35
                             3 2.83   3 2.84   8 2.86   8 2.86   8 2.86   8 2.86   1 2.88   4 2.88
   8  0.500  0.435  0.000-  20 1.86  21 1.86  21 1.86  20 1.86   2 2.04  22 2.07  19 2.07   1 2.83
                             4 2.83   4 2.84   1 2.84   7 2.86   7 2.86   7 2.86   7 2.86   3 2.88
   9  0.497  0.103  0.333-  13 1.86  23 1.86  23 1.86  13 1.86  24 2.07  14 2.07   5 2.84   1 2.84
                             1 2.84   5 2.84  10 2.86  10 2.86  10 2.86  10 2.86   6 2.87
  10  0.998  0.603  0.333-  14 1.86  24 1.86  24 1.86  14 1.86  13 2.07  23 2.07   6 2.84   6 2.84
                             9 2.86   9 2.86   9 2.86   9 2.86   5 2.87   1 2.88
  11  0.003  0.266  0.667-  16 1.86  17 1.86  16 1.86  17 1.86  15 2.07  18 2.07   6 2.84   3 2.84
                             3 2.84   6 2.84  12 2.86  12 2.86  12 2.86  12 2.86   5 2.87   4 2.88
  12  0.503  0.766  0.667-  15 1.86  18 1.86  18 1.86  15 1.86  16 2.07  17 2.07   5 2.84   4 2.84
                             4 2.84   5 2.84  11 2.86  11 2.86  11 2.86  11 2.86   6 2.87   3 2.88
  13  0.997  0.959  0.259-   9 1.86   9 1.86   1 2.03  10 2.07
  14  0.497  0.459  0.259-  10 1.86  10 1.86   9 2.07   1 2.11   1 2.12   2 2.49
  15  0.003  0.911  0.741-  12 1.86  12 1.86   4 2.03  11 2.07   3 2.11   3 2.11
  16  0.503  0.411  0.741-  11 1.86  11 1.86   3 2.03  12 2.07   4 2.11   4 2.12
  17  0.502  0.122  0.592-  11 1.86  11 1.86   6 2.04  12 2.07   5 2.10   5 2.11
  18  0.002  0.622  0.592-  12 1.86  12 1.86   5 2.04  11 2.07   6 2.10   6 2.11
  19  0.500  0.079  0.074-   7 1.86   7 1.86   2 1.92   8 2.07   1 2.11   1 2.12
  20  1.000  0.579  0.074-   2 1.54   2 1.62   8 1.86   8 1.86   1 2.03   7 2.07
  21  0.000  0.290  0.926-   8 1.86   8 1.86   4 2.03   7 2.07   3 2.11   3 2.12
  22  0.500  0.790  0.926-   7 1.86   7 1.86   3 2.03   8 2.07   4 2.11   4 2.12   2 2.57
  23  0.998  0.247  0.408-   9 1.86   9 1.86   5 2.04  10 2.07   6 2.10   6 2.11
  24  0.498  0.747  0.408-  10 1.86  10 1.86   6 2.04   9 2.07   5 2.10   5 2.11
 

IMPORTANT INFORMATION: All symmetrisations will be switched off!
NOSYMM: (Re-)initialisation of all symmetry stuff for point group C_1.

 
 

Automatic generation of k-mesh.
 generate k-points for:    8    5    2
Space group operators:
 irot       det(A)        alpha          n_x          n_y          n_z        tau_x        tau_y        tau_z
    1     1.000000     0.000000     1.000000     0.000000     0.000000     0.000000     0.000000     0.000000
 
 Subroutine IBZKPT returns following result:
 ===========================================
 
 Found     42 irreducible k-points:
 
 Following reciprocal coordinates:
            Coordinates               Weight
  0.000000  0.000000  0.000000      1.000000
  0.125000  0.000000  0.000000      2.000000
  0.250000  0.000000  0.000000      2.000000
  0.375000  0.000000  0.000000      2.000000
  0.500000  0.000000  0.000000      1.000000
  0.000000  0.200000  0.000000      2.000000
  0.125000  0.200000  0.000000      2.000000
  0.250000  0.200000  0.000000      2.000000
  0.375000  0.200000  0.000000      2.000000
  0.500000  0.200000  0.000000      2.000000
 -0.375000  0.200000  0.000000      2.000000
 -0.250000  0.200000  0.000000      2.000000
 -0.125000  0.200000  0.000000      2.000000
  0.000000  0.400000  0.000000      2.000000
  0.125000  0.400000  0.000000      2.000000
  0.250000  0.400000  0.000000      2.000000
  0.375000  0.400000  0.000000      2.000000
  0.500000  0.400000  0.000000      2.000000
 -0.375000  0.400000  0.000000      2.000000
 -0.250000  0.400000  0.000000      2.000000
 -0.125000  0.400000  0.000000      2.000000
  0.000000  0.000000  0.500000      1.000000
  0.125000  0.000000  0.500000      2.000000
  0.250000  0.000000  0.500000      2.000000
  0.375000  0.000000  0.500000      2.000000
  0.500000  0.000000  0.500000      1.000000
  0.000000  0.200000  0.500000      2.000000
  0.125000  0.200000  0.500000      2.000000
  0.250000  0.200000  0.500000      2.000000
  0.375000  0.200000  0.500000      2.000000
  0.500000  0.200000  0.500000      2.000000
 -0.375000  0.200000  0.500000      2.000000
 -0.250000  0.200000  0.500000      2.000000
 -0.125000  0.200000  0.500000      2.000000
  0.000000  0.400000  0.500000      2.000000
  0.125000  0.400000  0.500000      2.000000
  0.250000  0.400000  0.500000      2.000000
  0.375000  0.400000  0.500000      2.000000
  0.500000  0.400000  0.500000      2.000000
 -0.375000  0.400000  0.500000      2.000000
 -0.250000  0.400000  0.500000      2.000000
 -0.125000  0.400000  0.500000      2.000000
 
 Following cartesian coordinates:
            Coordinates               Weight
  0.000000  0.000000  0.000000      1.000000
  0.045805  0.000000  0.000000      2.000000
  0.091611  0.000000  0.000000      2.000000
  0.137416  0.000000  0.000000      2.000000
  0.183222  0.000000  0.000000      1.000000
  0.000000  0.039758  0.000000      2.000000
  0.045805  0.039758  0.000000      2.000000
  0.091611  0.039758  0.000000      2.000000
  0.137416  0.039758  0.000000      2.000000
  0.183222  0.039758  0.000000      2.000000
 -0.137416  0.039758  0.000000      2.000000
 -0.091611  0.039758  0.000000      2.000000
 -0.045805  0.039758  0.000000      2.000000
  0.000000  0.079516  0.000000      2.000000
  0.045805  0.079516  0.000000      2.000000
  0.091611  0.079516  0.000000      2.000000
  0.137416  0.079516  0.000000      2.000000
  0.183222  0.079516  0.000000      2.000000
 -0.137416  0.079516  0.000000      2.000000
 -0.091611  0.079516  0.000000      2.000000
 -0.045805  0.079516  0.000000      2.000000
  0.000000  0.000000  0.035580      1.000000
  0.045805  0.000000  0.035580      2.000000
  0.091611  0.000000  0.035580      2.000000
  0.137416  0.000000  0.035580      2.000000
  0.183222  0.000000  0.035580      1.000000
  0.000000  0.039758  0.035580      2.000000
  0.045805  0.039758  0.035580      2.000000
  0.091611  0.039758  0.035580      2.000000
  0.137416  0.039758  0.035580      2.000000
  0.183222  0.039758  0.035580      2.000000
 -0.137416  0.039758  0.035580      2.000000
 -0.091611  0.039758  0.035580      2.000000
 -0.045805  0.039758  0.035580      2.000000
  0.000000  0.079516  0.035580      2.000000
  0.045805  0.079516  0.035580      2.000000
  0.091611  0.079516  0.035580      2.000000
  0.137416  0.079516  0.035580      2.000000
  0.183222  0.079516  0.035580      2.000000
 -0.137416  0.079516  0.035580      2.000000
 -0.091611  0.079516  0.035580      2.000000
 -0.045805  0.079516  0.035580      2.000000
 


--------------------------------------------------------------------------------------------------------




 Dimension of arrays:
   k-points           NKPTS =     42   k-points in BZ     NKDIM =     42   number of bands    NBANDS=     96
   number of dos      NEDOS =    301   number of ions     NIONS =     24
   non local maximal  LDIM  =      6   non local SUM 2l+1 LMDIM =     18
   total plane-waves  NPLWV =  86400
   max r-space proj   IRMAX =   7229   max aug-charges    IRDMAX=  14716
   dimension x,y,z NGX =    20 NGY =   40 NGZ =  108
   dimension x,y,z NGXF=    40 NGYF=   80 NGZF=  216
   support grid    NGXF=    40 NGYF=   80 NGZF=  216
   ions per type =               6   6  12
 NGX,Y,Z   is equivalent  to a cutoff of  12.18, 13.22, 12.78 a.u.
 NGXF,Y,Z  is equivalent  to a cutoff of  24.37, 26.44, 25.55 a.u.


 I would recommend the setting:
   dimension x,y,z NGX =    20 NGY =   37 NGZ =  102
 SYSTEM =  unknown system                          
 POSCAR =  li3 ni3 o6                              

 Startparameter for this run:
   NWRITE =      2    write-flag & timer
   PREC   = accura    normal or accurate (medium, high low for compatibility)
   ISTART =      1    job   : 0-new  1-cont  2-samecut
   ICHARG =      0    charge: 1-file 2-atom 10-const
   ISPIN  =      2    spin polarized calculation?
   LNONCOLLINEAR =      F non collinear calculations
   LSORBIT =      F    spin-orbit coupling
   INIWAV =      1    electr: 0-lowe 1-rand  2-diag
   LASPH  =      T    aspherical Exc in radial PAW
   METAGGA=      F    non-selfconsistent MetaGGA calc.

 Electronic Relaxation 1
   ENCUT  =  500.0 eV  36.75 Ry    6.06 a.u.   4.98  9.17 25.62*2*pi/ulx,y,z
   ENINI  =  500.0     initial cutoff
   ENAUG  =  605.4 eV  augmentation charge cutoff
   NELM   =    200;   NELMIN=  2; NELMDL=  0     # of ELM steps 
   EDIFF  = 0.1E-05   stopping-criterion for ELM
   LREAL  =      T    real-space projection
   NLSPLINE    = F    spline interpolate recip. space projectors
   LCOMPAT=      F    compatible to vasp.4.4
   GGA_COMPAT  = T    GGA compatible to vasp.4.4-vasp.4.6
   LMAXPAW     = -100 max onsite density
   LMAXMIX     =    4 max onsite mixed and CHGCAR
   VOSKOWN=      0    Vosko Wilk Nusair interpolation
   ROPT   =   -0.00010  -0.00010  -0.00010
 Ionic relaxation
   EDIFFG = -.1E-01   stopping-criterion for IOM
   NSW    =      0    number of steps for IOM
   NBLOCK =      1;   KBLOCK =      1    inner block; outer block 
   IBRION =     -1    ionic relax: 0-MD 1-quasi-New 2-CG
   NFREE  =      1    steps in history (QN), initial steepest desc. (CG)
   ISIF   =      2    stress and relaxation
   IWAVPR =     10    prediction:  0-non 1-charg 2-wave 3-comb
   ISYM   =      0    0-nonsym 1-usesym 2-fastsym
   LCORR  =      T    Harris-Foulkes like correction to forces

   POTIM  = 0.5000    time-step for ionic-motion
   TEIN   =    0.0    initial temperature
   TEBEG  =    0.0;   TEEND  =   0.0 temperature during run
   SMASS  =  -3.00    Nose mass-parameter (am)
   estimated Nose-frequenzy (Omega)   =  0.10E-29 period in steps =****** mass=  -0.170E-27a.u.
   SCALEE = 1.0000    scale energy and forces
   NPACO  =    256;   APACO  = 16.0  distance and # of slots for P.C.
   PSTRESS=    0.0 pullay stress

  Mass of Ions in am
   POMASS =   7.01 58.69 16.00
  Ionic Valenz
   ZVAL   =   1.00 10.00  6.00
  Atomic Wigner-Seitz radii
   RWIGS  =  -1.00 -1.00 -1.00
  virtual crystal weights 
   VCA    =   1.00  1.00  1.00
   NELECT =     138.0000    total number of electrons
   NUPDOWN=       6.0000    fix difference up-down

 DOS related values:
   EMIN   =  10.00;   EMAX   =-10.00  energy-range for DOS
   EFERMI =   0.00
   ISMEAR =     1;   SIGMA  =   0.20  broadening in eV -4-tet -1-fermi 0-gaus

 Electronic relaxation 2 (details)
   IALGO  =     58    algorithm
   LDIAG  =      T    sub-space diagonalisation (order eigenvalues)
   LSUBROT=      F    optimize rotation matrix (better conditioning)
   TURBO    =      0    0=normal 1=particle mesh
   IRESTART =      0    0=no restart 2=restart with 2 vectors
   NREBOOT  =      0    no. of reboots
   NMIN     =      0    reboot dimension
   EREF     =   0.00    reference energy to select bands
   IMIX   =      4    mixing-type and parameters
     AMIX     =   0.40;   BMIX     =  1.00
     AMIX_MAG =   1.60;   BMIX_MAG =  1.00
     AMIN     =   0.10
     WC   =   100.;   INIMIX=   1;  MIXPRE=   1;  MAXMIX= -45

 Intra band minimization:
   WEIMIN = 0.0000     energy-eigenvalue tresh-hold
   EBREAK =  0.26E-08  absolut break condition
   DEPER  =   0.30     relativ break condition  

   TIME   =   0.40     timestep for ELM

  volume/ion in A,a.u.               =       8.04        54.24
  Fermi-wavevector in a.u.,A,eV,Ry     =   1.464137  2.766818 29.166774  2.143697
  Thomas-Fermi vector in A             =   2.580149
 
 Write flags
   LWAVE  =      T    write WAVECAR
   LCHARG =      T    write CHGCAR
   LVTOT  =      F    write LOCPOT, total local potential
   LVHAR  =      F    write LOCPOT, Hartree potential only
   LELF   =      F    write electronic localiz. function (ELF)
   LORBIT =     11    0 simple, 1 ext, 2 COOP (PROOUT)


 Dipole corrections
   LMONO  =      F    monopole corrections only (constant potential shift)
   LDIPOL =      F    correct potential (dipole corrections)
   IDIPOL =      0    1-x, 2-y, 3-z, 4-all directions 
   EPSILON=  1.0000000 bulk dielectric constant

 LDA+U is selected, type is set to LDAUTYPE =  2
   angular momentum for each species LDAUL =    -1    2   -1
   U (eV)           for each species LDAUU =   0.0  6.5  0.0
   J (eV)           for each species LDAUJ =   0.0  0.0  0.0
 Exchange correlation treatment:
   GGA     =    PS    GGA type
   LEXCH   =    14    internal setting for exchange type
   VOSKOWN=      0    Vosko Wilk Nusair interpolation
   LHFCALC =     F    Hartree Fock is set to
   LHFONE  =     F    Hartree Fock one center treatment
   AEXX    =    0.0000 exact exchange contribution

 Linear response parameters
   LEPSILON=     F    determine dielectric tensor
   LRPA    =     F    only Hartree local field effects (RPA)
   LNABLA  =     F    use nabla operator in PAW spheres
   LVEL    =     F    velocity operator in full k-point grid
   LINTERFAST=   F  fast interpolation
   KINTER  =     0    interpolate to denser k-point grid
   CSHIFT  =0.1000    complex shift for real part using Kramers Kronig
   OMEGAMAX=  -1.0    maximum frequency
   DEG_THRESHOLD= 0.2000000E-02 threshold for treating states as degnerate
   RTIME   =    0.100 relaxation time in fs

 Orbital magnetization related:
   ORBITALMAG=     F  switch on orbital magnetization
   LCHIMAG   =     F  perturbation theory with respect to B field
   DQ        =  0.001000  dq finite difference perturbation B field



--------------------------------------------------------------------------------------------------------


 Static calculation
 charge density and potential will be updated during run
 spin polarized calculation
 Conjugate gradient for all bands (Freysoldt, et al. PRB 79, 241103 (2009))
 preconditioned conjugated gradient                                        
 perform sub-space diagonalisation
    before iterative eigenvector-optimisation
 modified Broyden-mixing scheme, WC =      100.0
 initial mixing is a Kerker type mixing with AMIX =  0.4000 and BMIX =      1.0000
 Hartree-type preconditioning will be used
 using additional bands           27
 real space projection scheme for non local part
 use partial core corrections
 no Harris-corrections to forces 
 use gradient corrections 
 use of overlap-Matrix (Vanderbilt PP)
 Methfessel and Paxton  Order N= 1 SIGMA  =   0.20


--------------------------------------------------------------------------------------------------------


  energy-cutoff  :      500.00
  volume of cell :      192.91
      direct lattice vectors                 reciprocal lattice vectors
     2.728934050  0.000000000  0.000000000     0.366443447  0.000000000  0.000000000
     0.000000000  5.030428886  0.000000000     0.000000000  0.198790207  0.000000000
     0.000000000  0.000000000 14.052716830     0.000000000  0.000000000  0.071160617

  length of vectors
     2.728934050  5.030428886 14.052716830     0.366443447  0.198790207  0.071160617


 
 old parameters found on file WAVECAR:
  energy-cutoff  :      700.00
  volume of cell :      192.91
      direct lattice vectors                 reciprocal lattice vectors
     2.728934050  0.000000000  0.000000000     0.366443447  0.000000000  0.000000000
     0.000000000  5.030428886  0.000000000     0.000000000  0.198790207  0.000000000
     0.000000000  0.000000000 14.052716830     0.000000000  0.000000000  0.071160617

  length of vectors

 
 k-points in units of 2pi/SCALE and weight: read from INCAR                         
   0.00000000  0.00000000  0.00000000       0.013
   0.04580543  0.00000000  0.00000000       0.025
   0.09161086  0.00000000  0.00000000       0.025
   0.13741629  0.00000000  0.00000000       0.025
   0.18322172  0.00000000  0.00000000       0.013
   0.00000000  0.03975804  0.00000000       0.025
   0.04580543  0.03975804  0.00000000       0.025
   0.09161086  0.03975804  0.00000000       0.025
   0.13741629  0.03975804  0.00000000       0.025
   0.18322172  0.03975804  0.00000000       0.025
  -0.13741629  0.03975804  0.00000000       0.025
  -0.09161086  0.03975804  0.00000000       0.025
  -0.04580543  0.03975804  0.00000000       0.025
   0.00000000  0.07951608  0.00000000       0.025
   0.04580543  0.07951608  0.00000000       0.025
   0.09161086  0.07951608  0.00000000       0.025
   0.13741629  0.07951608  0.00000000       0.025
   0.18322172  0.07951608  0.00000000       0.025
  -0.13741629  0.07951608  0.00000000       0.025
  -0.09161086  0.07951608  0.00000000       0.025
  -0.04580543  0.07951608  0.00000000       0.025
   0.00000000  0.00000000  0.03558031       0.013
   0.04580543  0.00000000  0.03558031       0.025
   0.09161086  0.00000000  0.03558031       0.025
   0.13741629  0.00000000  0.03558031       0.025
   0.18322172  0.00000000  0.03558031       0.013
   0.00000000  0.03975804  0.03558031       0.025
   0.04580543  0.03975804  0.03558031       0.025
   0.09161086  0.03975804  0.03558031       0.025
   0.13741629  0.03975804  0.03558031       0.025
   0.18322172  0.03975804  0.03558031       0.025
  -0.13741629  0.03975804  0.03558031       0.025
  -0.09161086  0.03975804  0.03558031       0.025
  -0.04580543  0.03975804  0.03558031       0.025
   0.00000000  0.07951608  0.03558031       0.025
   0.04580543  0.07951608  0.03558031       0.025
   0.09161086  0.07951608  0.03558031       0.025
   0.13741629  0.07951608  0.03558031       0.025
   0.18322172  0.07951608  0.03558031       0.025
  -0.13741629  0.07951608  0.03558031       0.025
  -0.09161086  0.07951608  0.03558031       0.025
  -0.04580543  0.07951608  0.03558031       0.025
 
 k-points in reciprocal lattice and weights: read from INCAR                         
   0.00000000  0.00000000  0.00000000       0.013
   0.12500000  0.00000000  0.00000000       0.025
   0.25000000  0.00000000  0.00000000       0.025
   0.37500000  0.00000000  0.00000000       0.025
   0.50000000  0.00000000  0.00000000       0.013
   0.00000000  0.20000000  0.00000000       0.025
   0.12500000  0.20000000  0.00000000       0.025
   0.25000000  0.20000000  0.00000000       0.025
   0.37500000  0.20000000  0.00000000       0.025
   0.50000000  0.20000000  0.00000000       0.025
  -0.37500000  0.20000000  0.00000000       0.025
  -0.25000000  0.20000000  0.00000000       0.025
  -0.12500000  0.20000000  0.00000000       0.025
   0.00000000  0.40000000  0.00000000       0.025
   0.12500000  0.40000000  0.00000000       0.025
   0.25000000  0.40000000  0.00000000       0.025
   0.37500000  0.40000000  0.00000000       0.025
   0.50000000  0.40000000  0.00000000       0.025
  -0.37500000  0.40000000  0.00000000       0.025
  -0.25000000  0.40000000  0.00000000       0.025
  -0.12500000  0.40000000  0.00000000       0.025
   0.00000000  0.00000000  0.50000000       0.013
   0.12500000  0.00000000  0.50000000       0.025
   0.25000000  0.00000000  0.50000000       0.025
   0.37500000  0.00000000  0.50000000       0.025
   0.50000000  0.00000000  0.50000000       0.013
   0.00000000  0.20000000  0.50000000       0.025
   0.12500000  0.20000000  0.50000000       0.025
   0.25000000  0.20000000  0.50000000       0.025
   0.37500000  0.20000000  0.50000000       0.025
   0.50000000  0.20000000  0.50000000       0.025
  -0.37500000  0.20000000  0.50000000       0.025
  -0.25000000  0.20000000  0.50000000       0.025
  -0.12500000  0.20000000  0.50000000       0.025
   0.00000000  0.40000000  0.50000000       0.025
   0.12500000  0.40000000  0.50000000       0.025
   0.25000000  0.40000000  0.50000000       0.025
   0.37500000  0.40000000  0.50000000       0.025
   0.50000000  0.40000000  0.50000000       0.025
  -0.37500000  0.40000000  0.50000000       0.025
  -0.25000000  0.40000000  0.50000000       0.025
  -0.12500000  0.40000000  0.50000000       0.025
 
 position of ions in fractional coordinates (direct lattice) 
   0.99836456  0.26887563  0.16670676
   0.51663559  0.70888973  0.10668838
   0.50327980  0.10022122  0.83332428
   0.00153957  0.60021873  0.83329937
   0.00007411  0.93451424  0.49999084
   0.50007282  0.43451671  0.49999104
   0.00004375  0.93459923  0.99999602
   0.50006984  0.43461434  0.00000846
   0.49746260  0.10299925  0.33344478
   0.99750670  0.60298006  0.33341244
   0.00255949  0.26619650  0.66658860
   0.50258316  0.76615573  0.66654394
   0.99722059  0.95861446  0.25934876
   0.49732034  0.45859854  0.25931459
   0.00282597  0.91055232  0.74064802
   0.50271771  0.41057813  0.74068632
   0.50245038  0.12185761  0.59246077
   0.00241580  0.62177328  0.59244762
   0.49980507  0.07898691  0.07409951
   0.99982477  0.57888734  0.07416216
   0.00025026  0.29023794  0.92586521
   0.50032519  0.79012157  0.92590536
   0.99764867  0.24740223  0.40753823
   0.49760373  0.74732979  0.40752889
 
 position of ions in cartesian coordinates  (Angst):
   2.72447105  1.35255973  2.34268283
   1.40986445  3.56601936  1.49926166
   1.37341737  0.50415571 11.71047013
   0.00420139  3.01935765 11.71012007
   0.00020224  4.70100740  7.02622968
   1.36466575  2.18580541  7.02623244
   0.00011940  4.70143498 14.05266093
   1.36465762  2.18629652  0.00011891
   1.35754262  0.51813042  4.68580507
   2.72212999  3.03324830  4.68535061
   0.00698467  1.33908256  9.36738085
   1.37151630  3.85409189  9.36675329
   2.72134921  4.82224186  3.64455470
   1.35715441  2.30694736  3.64407454
   0.00771190  4.58046868 10.40811693
   1.37188347  2.06538407 10.40865509
   1.37115395  0.61299602  8.32568342
   0.00659256  3.12778628  8.32549863
   1.36393508  0.39733802  1.04129950
   2.72845585  2.91205162  1.04217979
   0.00068294  1.46002131 13.01092165
   1.36535445  3.97465036 13.01148590
   2.72251743  1.24453932  5.72701935
   1.35792776  3.75938935  5.72688804
 


--------------------------------------------------------------------------------------------------------


 k-point  1 :   0.0000 0.0000 0.0000  plane waves:    4845
 k-point  2 :   0.1250 0.0000 0.0000  plane waves:    4884
 k-point  3 :   0.2500 0.0000 0.0000  plane waves:    4902
 k-point  4 :   0.3750 0.0000 0.0000  plane waves:    4916
 k-point  5 :   0.5000 0.0000 0.0000  plane waves:    4914
 k-point  6 :   0.0000 0.2000 0.0000  plane waves:    4870
 k-point  7 :   0.1250 0.2000 0.0000  plane waves:    4872
 k-point  8 :   0.2500 0.2000 0.0000  plane waves:    4890
 k-point  9 :   0.3750 0.2000 0.0000  plane waves:    4914
 k-point 10 :   0.5000 0.2000 0.0000  plane waves:    4912
 k-point 11 :  -0.3750 0.2000 0.0000  plane waves:    4914
 k-point 12 :  -0.2500 0.2000 0.0000  plane waves:    4890
 k-point 13 :  -0.1250 0.2000 0.0000  plane waves:    4872
 k-point 14 :   0.0000 0.4000 0.0000  plane waves:    4848
 k-point 15 :   0.1250 0.4000 0.0000  plane waves:    4872
 k-point 16 :   0.2500 0.4000 0.0000  plane waves:    4919
 k-point 17 :   0.3750 0.4000 0.0000  plane waves:    4926
 k-point 18 :   0.5000 0.4000 0.0000  plane waves:    4958
 k-point 19 :  -0.3750 0.4000 0.0000  plane waves:    4926
 k-point 20 :  -0.2500 0.4000 0.0000  plane waves:    4919
 k-point 21 :  -0.1250 0.4000 0.0000  plane waves:    4872
 k-point 22 :   0.0000 0.0000 0.5000  plane waves:    4856
 k-point 23 :   0.1250 0.0000 0.5000  plane waves:    4890
 k-point 24 :   0.2500 0.0000 0.5000  plane waves:    4886
 k-point 25 :   0.3750 0.0000 0.5000  plane waves:    4926
 k-point 26 :   0.5000 0.0000 0.5000  plane waves:    4880
 k-point 27 :   0.0000 0.2000 0.5000  plane waves:    4842
 k-point 28 :   0.1250 0.2000 0.5000  plane waves:    4876
 k-point 29 :   0.2500 0.2000 0.5000  plane waves:    4902
 k-point 30 :   0.3750 0.2000 0.5000  plane waves:    4916
 k-point 31 :   0.5000 0.2000 0.5000  plane waves:    4912
 k-point 32 :  -0.3750 0.2000 0.5000  plane waves:    4916
 k-point 33 :  -0.2500 0.2000 0.5000  plane waves:    4902
 k-point 34 :  -0.1250 0.2000 0.5000  plane waves:    4876
 k-point 35 :   0.0000 0.4000 0.5000  plane waves:    4822
 k-point 36 :   0.1250 0.4000 0.5000  plane waves:    4890
 k-point 37 :   0.2500 0.4000 0.5000  plane waves:    4922
 k-point 38 :   0.3750 0.4000 0.5000  plane waves:    4910
 k-point 39 :   0.5000 0.4000 0.5000  plane waves:    4924
 k-point 40 :  -0.3750 0.4000 0.5000  plane waves:    4910
 k-point 41 :  -0.2500 0.4000 0.5000  plane waves:    4922
 k-point 42 :  -0.1250 0.4000 0.5000  plane waves:    4890

 maximum and minimum number of plane-waves per node :      4958     4822

 maximum number of plane-waves:      4958
 maximum index in each direction: 
   IXMAX=    5   IYMAX=    9   IZMAX=   25
   IXMIN=   -5   IYMIN=   -9   IZMIN=  -26

 WARNING: aliasing errors must be expected set NGX to  22 to avoid them
 NGY is ok and might be reduce to  38
 NGZ is ok and might be reduce to 104
 aliasing errors are usually negligible using standard VASP settings
 and one can safely disregard these warnings

 serial   3D FFT for wavefunctions
 parallel 3D FFT for charge:
    minimum data exchange during FFTs selected (reduces bandwidth)


 total amount of memory used by VASP on root node   139538. kBytes
========================================================================

   base      :      30000. kBytes
   nonlr-proj:      13320. kBytes
   fftplans  :       1477. kBytes
   grid      :      10001. kBytes
   one-center:        746. kBytes
   wavefun   :      83994. kBytes
 
     INWAV:  cpu time    2.7985: real time    2.8752
 Broyden mixing: mesh for mixing (old mesh)
   NGX =  9   NGY = 19   NGZ = 51
  (NGX  = 40   NGY  = 80   NGZ  =216)
  gives a total of   8721 points

 charge density for first step will be calculated from the start-wavefunctions


--------------------------------------------------------------------------------------------------------


 Maximum index for non-local projection operator         6989
 Maximum index for augmentation-charges          737 (set IRDMAX)


--------------------------------------------------------------------------------------------------------


 initial charge from wavefunction
 First call to EWALD:  gamma=   0.307
 Maximum number of real-space cells 5x 3x 1
 Maximum number of reciprocal cells 2x 2x 6

 FEWALD executed in parallel
    FEWALD:  cpu time    0.0019: real time    0.0019


----------------------------------------- Iteration    1(   1)  ---------------------------------------


    POTLOK:  cpu time    0.0447: real time    0.0449
atom =   7  type =  2  l = 2
 
 onsite density matrix
 
spin component  1
 
  0.8927 -0.0004 -0.0001 -0.1589 -0.0003
 -0.0004  1.0370  0.0068 -0.0007  0.0334
 -0.0001  0.0068  0.9972 -0.0000 -0.0026
 -0.1589 -0.0007 -0.0000  0.7473 -0.0003
 -0.0003  0.0334 -0.0026 -0.0003  1.0312
 
spin component  2
 
  0.8259  0.0003 -0.0000 -0.2454  0.0004
  0.0003  0.5420 -0.0301  0.0002 -0.3555
 -0.0000 -0.0301  0.9930 -0.0000 -0.0306
 -0.2454  0.0002 -0.0000  0.6340  0.0004
  0.0004 -0.3555 -0.0306  0.0004  0.7225
 
 occupancies and eigenvectors
 
  o =  0.2630  v =  0.0000  0.0000  0.0000  0.0000  0.0000  0.0017 -0.7877 -0.0582  0.0021 -0.6133      0.0000  0.0000  0.0000  0.0000  0.0000  0.0000  0.0000  0.0000  0.0000  0.0000
  o =  0.4665  v =  0.0000  0.0000  0.0000  0.0000  0.0000 -0.5639 -0.0024 -0.0003 -0.8259 -0.0013      0.0000  0.0000  0.0000  0.0000  0.0000  0.0000  0.0000  0.0000  0.0000  0.0000
  o =  0.6453  v = -0.5404 -0.0020 -0.0001 -0.8414 -0.0010  0.0000  0.0000  0.0000  0.0000  0.0000      0.0000  0.0000  0.0000  0.0000  0.0000  0.0000  0.0000  0.0000  0.0000  0.0000
  o =  0.9913  v =  0.0000  0.0000  0.0000  0.0000  0.0000 -0.0146  0.4005 -0.8046  0.0099 -0.4381      0.0000  0.0000  0.0000  0.0000  0.0000  0.0000  0.0000  0.0000  0.0000  0.0000
  o =  0.9921  v =  0.0174 -0.4368  0.7924 -0.0107  0.4253  0.0000  0.0000  0.0000  0.0000  0.0000      0.0000  0.0000  0.0000  0.0000  0.0000  0.0000  0.0000  0.0000  0.0000  0.0000
  o =  0.9935  v =  0.0000  0.0000  0.0000  0.0000  0.0000  0.8257  0.0073 -0.0141 -0.5638 -0.0077      0.0000  0.0000  0.0000  0.0000  0.0000  0.0000  0.0000  0.0000  0.0000  0.0000
  o =  0.9947  v =  0.8412  0.0092 -0.0161 -0.5403 -0.0086  0.0000  0.0000  0.0000  0.0000  0.0000      0.0000  0.0000  0.0000  0.0000  0.0000  0.0000  0.0000  0.0000  0.0000  0.0000
  o =  1.0032  v =  0.0000  0.0000  0.0000  0.0000  0.0000  0.0004 -0.4680 -0.5908  0.0003  0.6572      0.0000  0.0000  0.0000  0.0000  0.0000  0.0000  0.0000  0.0000  0.0000  0.0000
  o =  1.0055  v =  0.0004 -0.5125 -0.6080  0.0003  0.6063  0.0000  0.0000  0.0000  0.0000  0.0000      0.0000  0.0000  0.0000  0.0000  0.0000  0.0000  0.0000  0.0000  0.0000  0.0000
  o =  1.0678  v = -0.0013  0.7392  0.0469 -0.0016  0.6719  0.0000  0.0000  0.0000  0.0000  0.0000      0.0000  0.0000  0.0000  0.0000  0.0000  0.0000  0.0000  0.0000  0.0000  0.0000
atom =   8  type =  2  l = 2
 
 onsite density matrix
 
spin component  1
 
  0.8928 -0.0003 -0.0001 -0.1589 -0.0001
 -0.0003  1.0371  0.0068 -0.0004  0.0336
 -0.0001  0.0068  0.9972 -0.0000 -0.0025
 -0.1589 -0.0004 -0.0000  0.7471 -0.0002
 -0.0001  0.0336 -0.0025 -0.0002  1.0313
 
spin component  2
 
  0.8262  0.0002 -0.0001 -0.2453  0.0003
  0.0002  0.5424 -0.0304 -0.0000 -0.3553
 -0.0001 -0.0304  0.9929 -0.0001 -0.0308
 -0.2453 -0.0000 -0.0001  0.6338  0.0002
  0.0003 -0.3553 -0.0308  0.0002  0.7224
 
 occupancies and eigenvectors
 
  o =  0.2634  v =  0.0000  0.0000  0.0000  0.0000  0.0000 -0.0010  0.7875  0.0587 -0.0010  0.6135      0.0000  0.0000  0.0000  0.0000  0.0000  0.0000  0.0000  0.0000  0.0000  0.0000
  o =  0.4665  v =  0.0000  0.0000  0.0000  0.0000  0.0000  0.5634  0.0013  0.0003  0.8262  0.0006      0.0000  0.0000  0.0000  0.0000  0.0000  0.0000  0.0000  0.0000  0.0000  0.0000
  o =  0.6452  v = -0.5401 -0.0012 -0.0002 -0.8416 -0.0004  0.0000  0.0000  0.0000  0.0000  0.0000      0.0000  0.0000  0.0000  0.0000  0.0000  0.0000  0.0000  0.0000  0.0000  0.0000
  o =  0.9913  v =  0.0000  0.0000  0.0000  0.0000  0.0000 -0.0119  0.4017 -0.8037  0.0080 -0.4388      0.0000  0.0000  0.0000  0.0000  0.0000  0.0000  0.0000  0.0000  0.0000  0.0000
  o =  0.9921  v =  0.0159 -0.4384  0.7912 -0.0099  0.4259  0.0000  0.0000  0.0000  0.0000  0.0000      0.0000  0.0000  0.0000  0.0000  0.0000  0.0000  0.0000  0.0000  0.0000  0.0000
  o =  0.9935  v =  0.0000  0.0000  0.0000  0.0000  0.0000  0.8261  0.0062 -0.0113 -0.5634 -0.0064      0.0000  0.0000  0.0000  0.0000  0.0000  0.0000  0.0000  0.0000  0.0000  0.0000
  o =  0.9947  v =  0.8415  0.0086 -0.0146 -0.5400 -0.0080  0.0000  0.0000  0.0000  0.0000  0.0000      0.0000  0.0000  0.0000  0.0000  0.0000  0.0000  0.0000  0.0000  0.0000  0.0000
  o =  1.0031  v =  0.0000  0.0000  0.0000  0.0000  0.0000  0.0006 -0.4673 -0.5920  0.0001  0.6566      0.0000  0.0000  0.0000  0.0000  0.0000  0.0000  0.0000  0.0000  0.0000  0.0000
  o =  1.0055  v =  0.0005 -0.5115 -0.6095  0.0002  0.6057  0.0000  0.0000  0.0000  0.0000  0.0000      0.0000  0.0000  0.0000  0.0000  0.0000  0.0000  0.0000  0.0000  0.0000  0.0000
  o =  1.0680  v = -0.0009  0.7390  0.0477 -0.0009  0.6721  0.0000  0.0000  0.0000  0.0000  0.0000      0.0000  0.0000  0.0000  0.0000  0.0000  0.0000  0.0000  0.0000  0.0000  0.0000
atom =   9  type =  2  l = 2
 
 onsite density matrix
 
spin component  1
 
  0.8926  0.0003  0.0001 -0.1591  0.0002
  0.0003  1.0371  0.0068  0.0005  0.0335
  0.0001  0.0068  0.9973  0.0001 -0.0026
 -0.1591  0.0005  0.0001  0.7470  0.0002
  0.0002  0.0335 -0.0026  0.0002  1.0313
 
spin component  2
 
  0.8261 -0.0002  0.0001 -0.2452 -0.0003
 -0.0002  0.5426 -0.0301 -0.0001 -0.3553
  0.0001 -0.0301  0.9930  0.0001 -0.0307
 -0.2452 -0.0001  0.0001  0.6342 -0.0003
 -0.0003 -0.3553 -0.0307 -0.0003  0.7224
 
 occupancies and eigenvectors
 
  o =  0.2635  v =  0.0000  0.0000  0.0000  0.0000  0.0000  0.0011  0.7875  0.0583  0.0014  0.6136      0.0000  0.0000  0.0000  0.0000  0.0000  0.0000  0.0000  0.0000  0.0000  0.0000
  o =  0.4668  v =  0.0000  0.0000  0.0000  0.0000  0.0000 -0.5638  0.0016  0.0003 -0.8259  0.0008      0.0000  0.0000  0.0000  0.0000  0.0000  0.0000  0.0000  0.0000  0.0000  0.0000
  o =  0.6448  v =  0.5404 -0.0013 -0.0002  0.8414 -0.0006  0.0000  0.0000  0.0000  0.0000  0.0000      0.0000  0.0000  0.0000  0.0000  0.0000  0.0000  0.0000  0.0000  0.0000  0.0000
  o =  0.9913  v =  0.0000  0.0000  0.0000  0.0000  0.0000 -0.0118 -0.4007  0.8047  0.0080  0.4377      0.0000  0.0000  0.0000  0.0000  0.0000  0.0000  0.0000  0.0000  0.0000  0.0000
  o =  0.9921  v =  0.0145  0.4370 -0.7924 -0.0091 -0.4253  0.0000  0.0000  0.0000  0.0000  0.0000      0.0000  0.0000  0.0000  0.0000  0.0000  0.0000  0.0000  0.0000  0.0000  0.0000
  o =  0.9935  v =  0.0000  0.0000  0.0000  0.0000  0.0000  0.8259 -0.0059  0.0113 -0.5637  0.0063      0.0000  0.0000  0.0000  0.0000  0.0000  0.0000  0.0000  0.0000  0.0000  0.0000
  o =  0.9947  v =  0.8413 -0.0077  0.0134 -0.5403  0.0073  0.0000  0.0000  0.0000  0.0000  0.0000      0.0000  0.0000  0.0000  0.0000  0.0000  0.0000  0.0000  0.0000  0.0000  0.0000
  o =  1.0032  v =  0.0000  0.0000  0.0000  0.0000  0.0000 -0.0004 -0.4683 -0.5906 -0.0002  0.6572      0.0000  0.0000  0.0000  0.0000  0.0000  0.0000  0.0000  0.0000  0.0000  0.0000
  o =  1.0056  v = -0.0004 -0.5124 -0.6080 -0.0002  0.6064  0.0000  0.0000  0.0000  0.0000  0.0000      0.0000  0.0000  0.0000  0.0000  0.0000  0.0000  0.0000  0.0000  0.0000  0.0000
  o =  1.0679  v =  0.0009  0.7392  0.0471  0.0011  0.6718  0.0000  0.0000  0.0000  0.0000  0.0000      0.0000  0.0000  0.0000  0.0000  0.0000  0.0000  0.0000  0.0000  0.0000  0.0000
atom =  10  type =  2  l = 2
 
 onsite density matrix
 
spin component  1
 
  0.8926  0.0002  0.0000 -0.1591  0.0002
  0.0002  1.0371  0.0068  0.0004  0.0335
  0.0000  0.0068  0.9973  0.0000 -0.0025
 -0.1591  0.0004  0.0000  0.7469  0.0002
  0.0002  0.0335 -0.0025  0.0002  1.0313
 
spin component  2
 
  0.8262 -0.0002  0.0000 -0.2453 -0.0002
 -0.0002  0.5426 -0.0302 -0.0001 -0.3553
  0.0000 -0.0302  0.9929  0.0000 -0.0307
 -0.2453 -0.0001  0.0000  0.6341 -0.0002
 -0.0002 -0.3553 -0.0307 -0.0002  0.7224
 
 occupancies and eigenvectors
 
  o =  0.2635  v =  0.0000  0.0000  0.0000  0.0000  0.0000 -0.0010 -0.7874 -0.0585 -0.0011 -0.6136      0.0000  0.0000  0.0000  0.0000  0.0000  0.0000  0.0000  0.0000  0.0000  0.0000
  o =  0.4667  v =  0.0000  0.0000  0.0000  0.0000  0.0000  0.5636 -0.0013 -0.0002  0.8260 -0.0007      0.0000  0.0000  0.0000  0.0000  0.0000  0.0000  0.0000  0.0000  0.0000  0.0000
  o =  0.6448  v =  0.5403 -0.0011 -0.0001  0.8415 -0.0006  0.0000  0.0000  0.0000  0.0000  0.0000      0.0000  0.0000  0.0000  0.0000  0.0000  0.0000  0.0000  0.0000  0.0000  0.0000
  o =  0.9913  v =  0.0000  0.0000  0.0000  0.0000  0.0000 -0.0080 -0.4010  0.8046  0.0054  0.4378      0.0000  0.0000  0.0000  0.0000  0.0000  0.0000  0.0000  0.0000  0.0000  0.0000
  o =  0.9921  v =  0.0108  0.4372 -0.7922 -0.0068 -0.4255  0.0000  0.0000  0.0000  0.0000  0.0000      0.0000  0.0000  0.0000  0.0000  0.0000  0.0000  0.0000  0.0000  0.0000  0.0000
  o =  0.9935  v =  0.0000  0.0000  0.0000  0.0000  0.0000  0.8260 -0.0041  0.0077 -0.5636  0.0042      0.0000  0.0000  0.0000  0.0000  0.0000  0.0000  0.0000  0.0000  0.0000  0.0000
  o =  0.9947  v =  0.8414 -0.0059  0.0100 -0.5402  0.0053  0.0000  0.0000  0.0000  0.0000  0.0000      0.0000  0.0000  0.0000  0.0000  0.0000  0.0000  0.0000  0.0000  0.0000  0.0000
  o =  1.0032  v =  0.0000  0.0000  0.0000  0.0000  0.0000 -0.0003 -0.4681 -0.5908 -0.0001  0.6571      0.0000  0.0000  0.0000  0.0000  0.0000  0.0000  0.0000  0.0000  0.0000  0.0000
  o =  1.0055  v = -0.0003 -0.5122 -0.6083 -0.0002  0.6063  0.0000  0.0000  0.0000  0.0000  0.0000      0.0000  0.0000  0.0000  0.0000  0.0000  0.0000  0.0000  0.0000  0.0000  0.0000
  o =  1.0679  v =  0.0009  0.7392  0.0472  0.0008  0.6718  0.0000  0.0000  0.0000  0.0000  0.0000      0.0000  0.0000  0.0000  0.0000  0.0000  0.0000  0.0000  0.0000  0.0000  0.0000
atom =  11  type =  2  l = 2
 
 onsite density matrix
 
spin component  1
 
  0.8926  0.0002  0.0000 -0.1591  0.0002
  0.0002  1.0370  0.0068  0.0004  0.0335
  0.0000  0.0068  0.9973  0.0000 -0.0025
 -0.1591  0.0004  0.0000  0.7469  0.0002
  0.0002  0.0335 -0.0025  0.0002  1.0312
 
spin component  2
 
  0.8262 -0.0002  0.0000 -0.2453 -0.0002
 -0.0002  0.5426 -0.0302 -0.0001 -0.3553
  0.0000 -0.0302  0.9929  0.0000 -0.0307
 -0.2453 -0.0001  0.0000  0.6340 -0.0002
 -0.0002 -0.3553 -0.0307 -0.0002  0.7224
 
 occupancies and eigenvectors
 
  o =  0.2634  v =  0.0000  0.0000  0.0000  0.0000  0.0000 -0.0010 -0.7874 -0.0585 -0.0011 -0.6136      0.0000  0.0000  0.0000  0.0000  0.0000  0.0000  0.0000  0.0000  0.0000  0.0000
  o =  0.4667  v =  0.0000  0.0000  0.0000  0.0000  0.0000  0.5636 -0.0012 -0.0002  0.8260 -0.0007      0.0000  0.0000  0.0000  0.0000  0.0000  0.0000  0.0000  0.0000  0.0000  0.0000
  o =  0.6448  v =  0.5402 -0.0010 -0.0001  0.8415 -0.0005  0.0000  0.0000  0.0000  0.0000  0.0000      0.0000  0.0000  0.0000  0.0000  0.0000  0.0000  0.0000  0.0000  0.0000  0.0000
  o =  0.9913  v =  0.0000  0.0000  0.0000  0.0000  0.0000 -0.0076 -0.4009  0.8047  0.0051  0.4378      0.0000  0.0000  0.0000  0.0000  0.0000  0.0000  0.0000  0.0000  0.0000  0.0000
  o =  0.9921  v =  0.0103  0.4373 -0.7923 -0.0064 -0.4254  0.0000  0.0000  0.0000  0.0000  0.0000      0.0000  0.0000  0.0000  0.0000  0.0000  0.0000  0.0000  0.0000  0.0000  0.0000
  o =  0.9935  v =  0.0000  0.0000  0.0000  0.0000  0.0000  0.8260 -0.0039  0.0072 -0.5636  0.0040      0.0000  0.0000  0.0000  0.0000  0.0000  0.0000  0.0000  0.0000  0.0000  0.0000
  o =  0.9947  v =  0.8415 -0.0056  0.0095 -0.5402  0.0051  0.0000  0.0000  0.0000  0.0000  0.0000      0.0000  0.0000  0.0000  0.0000  0.0000  0.0000  0.0000  0.0000  0.0000  0.0000
  o =  1.0032  v =  0.0000  0.0000  0.0000  0.0000  0.0000 -0.0003 -0.4682 -0.5908 -0.0001  0.6571      0.0000  0.0000  0.0000  0.0000  0.0000  0.0000  0.0000  0.0000  0.0000  0.0000
  o =  1.0055  v = -0.0003 -0.5122 -0.6083 -0.0001  0.6064  0.0000  0.0000  0.0000  0.0000  0.0000      0.0000  0.0000  0.0000  0.0000  0.0000  0.0000  0.0000  0.0000  0.0000  0.0000
  o =  1.0679  v =  0.0008  0.7392  0.0473  0.0008  0.6718  0.0000  0.0000  0.0000  0.0000  0.0000      0.0000  0.0000  0.0000  0.0000  0.0000  0.0000  0.0000  0.0000  0.0000  0.0000
atom =  12  type =  2  l = 2
 
 onsite density matrix
 
spin component  1
 
  0.8926  0.0003  0.0001 -0.1591  0.0002
  0.0003  1.0370  0.0068  0.0004  0.0334
  0.0001  0.0068  0.9973  0.0001 -0.0026
 -0.1591  0.0004  0.0001  0.7470  0.0002
  0.0002  0.0334 -0.0026  0.0002  1.0312
 
spin component  2
 
  0.8261 -0.0002  0.0001 -0.2453 -0.0002
 -0.0002  0.5425 -0.0302 -0.0001 -0.3553
  0.0001 -0.0302  0.9929  0.0000 -0.0307
 -0.2453 -0.0001  0.0000  0.6341 -0.0003
 -0.0002 -0.3553 -0.0307 -0.0003  0.7224
 
 occupancies and eigenvectors
 
  o =  0.2634  v =  0.0000  0.0000  0.0000  0.0000  0.0000  0.0011  0.7875  0.0584  0.0013  0.6135      0.0000  0.0000  0.0000  0.0000  0.0000  0.0000  0.0000  0.0000  0.0000  0.0000
  o =  0.4667  v =  0.0000  0.0000  0.0000  0.0000  0.0000 -0.5637  0.0015  0.0003 -0.8260  0.0008      0.0000  0.0000  0.0000  0.0000  0.0000  0.0000  0.0000  0.0000  0.0000  0.0000
  o =  0.6449  v =  0.5403 -0.0012 -0.0002  0.8415 -0.0006  0.0000  0.0000  0.0000  0.0000  0.0000      0.0000  0.0000  0.0000  0.0000  0.0000  0.0000  0.0000  0.0000  0.0000  0.0000
  o =  0.9913  v =  0.0000  0.0000  0.0000  0.0000  0.0000 -0.0114 -0.4007  0.8047  0.0077  0.4378      0.0000  0.0000  0.0000  0.0000  0.0000  0.0000  0.0000  0.0000  0.0000  0.0000
  o =  0.9921  v =  0.0140  0.4370 -0.7924 -0.0088 -0.4254  0.0000  0.0000  0.0000  0.0000  0.0000      0.0000  0.0000  0.0000  0.0000  0.0000  0.0000  0.0000  0.0000  0.0000  0.0000
  o =  0.9935  v =  0.0000  0.0000  0.0000  0.0000  0.0000  0.8259 -0.0057  0.0109 -0.5637  0.0061      0.0000  0.0000  0.0000  0.0000  0.0000  0.0000  0.0000  0.0000  0.0000  0.0000
  o =  0.9947  v =  0.8414 -0.0075  0.0129 -0.5402  0.0071  0.0000  0.0000  0.0000  0.0000  0.0000      0.0000  0.0000  0.0000  0.0000  0.0000  0.0000  0.0000  0.0000  0.0000  0.0000
  o =  1.0032  v =  0.0000  0.0000  0.0000  0.0000  0.0000 -0.0004 -0.4682 -0.5907 -0.0002  0.6572      0.0000  0.0000  0.0000  0.0000  0.0000  0.0000  0.0000  0.0000  0.0000  0.0000
  o =  1.0055  v = -0.0004 -0.5123 -0.6081 -0.0002  0.6064  0.0000  0.0000  0.0000  0.0000  0.0000      0.0000  0.0000  0.0000  0.0000  0.0000  0.0000  0.0000  0.0000  0.0000  0.0000
  o =  1.0678  v =  0.0008  0.7393  0.0471  0.0010  0.6718  0.0000  0.0000  0.0000  0.0000  0.0000      0.0000  0.0000  0.0000  0.0000  0.0000  0.0000  0.0000  0.0000  0.0000  0.0000
    SETDIJ:  cpu time    0.5012: real time    0.5090
    TRIAL :  cpu time    6.7752: real time    6.7819
    CORREC:  cpu time    2.1699: real time    2.1723
    CHARGE:  cpu time    0.4076: real time    0.4077
    --------------------------------------------
      LOOP:  cpu time    9.9131: real time    9.9586

 eigenvalue-minimisations  :     0
 total energy-change (2. order) :-0.1220260E+03  (-0.2032041E+01)
 number of electron     138.0000063 magnetization       6.0000003
 augmentation part       44.2350525 magnetization       4.9902491

 Free energy of the ion-electron system (eV)
  ---------------------------------------------------
  alpha Z        PSCENC =       428.94280166
  Ewald energy   TEWEN  =     -8310.02910685
  -Hartree energ DENC   =     -3955.05501341
  -exchange      EXHF   =         0.00000000
  -V(xc)+E(xc)   XCENC  =       515.96218688
  PAW double counting   =     13746.29268772   -14000.83108178
  entropy T*S    EENTRO =         0.01163004
  eigenvalues    EBANDS =      -208.58459666
  atomic energy  EATOM  =     11661.26050125
  ---------------------------------------------------
  free energy    TOTEN  =      -122.02595400 eV

  energy without entropy =     -122.03758404  energy(sigma->0) =     -122.02983068


--------------------------------------------------------------------------------------------------------




----------------------------------------- Iteration    1(   2)  ---------------------------------------


    POTLOK:  cpu time    0.0382: real time    0.0382
atom =   7  type =  2  l = 2
 
 onsite density matrix
 
spin component  1
 
  0.9000 -0.0004 -0.0001 -0.1477 -0.0003
 -0.0004  1.0383  0.0063 -0.0006  0.0335
 -0.0001  0.0063  0.9988 -0.0000 -0.0035
 -0.1477 -0.0006 -0.0000  0.7701 -0.0003
 -0.0003  0.0335 -0.0035 -0.0003  1.0329
 
spin component  2
 
  0.8298  0.0003 -0.0001 -0.2406  0.0003
  0.0003  0.5444 -0.0303  0.0002 -0.3541
 -0.0001 -0.0303  0.9945 -0.0001 -0.0314
 -0.2406  0.0002 -0.0001  0.6435  0.0004
  0.0003 -0.3541 -0.0314  0.0004  0.7250
 
 occupancies and eigenvectors
 
  o =  0.2666  v =  0.0000  0.0000  0.0000  0.0000  0.0000 -0.0016  0.7879  0.0593 -0.0021  0.6129      0.0000  0.0000  0.0000  0.0000  0.0000  0.0000  0.0000  0.0000  0.0000  0.0000
  o =  0.4787  v =  0.0000  0.0000  0.0000  0.0000  0.0000  0.5651  0.0022  0.0004  0.8250  0.0013      0.0000  0.0000  0.0000  0.0000  0.0000  0.0000  0.0000  0.0000  0.0000  0.0000
  o =  0.6737  v = -0.5465 -0.0020 -0.0003 -0.8374 -0.0010  0.0000  0.0000  0.0000  0.0000  0.0000      0.0000  0.0000  0.0000  0.0000  0.0000  0.0000  0.0000  0.0000  0.0000  0.0000
  o =  0.9922  v =  0.0000  0.0000  0.0000  0.0000  0.0000 -0.0186  0.4146 -0.7867  0.0128 -0.4569      0.0000  0.0000  0.0000  0.0000  0.0000  0.0000  0.0000  0.0000  0.0000  0.0000
  o =  0.9933  v =  0.0252 -0.4366  0.7844 -0.0162  0.4395  0.0000  0.0000  0.0000  0.0000  0.0000      0.0000  0.0000  0.0000  0.0000  0.0000  0.0000  0.0000  0.0000  0.0000  0.0000
  o =  0.9946  v =  0.0000  0.0000  0.0000  0.0000  0.0000  0.8248  0.0102 -0.0167 -0.5650 -0.0113      0.0000  0.0000  0.0000  0.0000  0.0000  0.0000  0.0000  0.0000  0.0000  0.0000
  o =  0.9964  v =  0.8371  0.0137 -0.0231 -0.5463 -0.0132  0.0000  0.0000  0.0000  0.0000  0.0000      0.0000  0.0000  0.0000  0.0000  0.0000  0.0000  0.0000  0.0000  0.0000  0.0000
  o =  1.0050  v =  0.0000  0.0000  0.0000  0.0000  0.0000  0.0016 -0.4552 -0.6143 -0.0006  0.6446      0.0000  0.0000  0.0000  0.0000  0.0000  0.0000  0.0000  0.0000  0.0000  0.0000
  o =  1.0074  v =  0.0008 -0.5160 -0.6190  0.0002  0.5921  0.0000  0.0000  0.0000  0.0000  0.0000      0.0000  0.0000  0.0000  0.0000  0.0000  0.0000  0.0000  0.0000  0.0000  0.0000
  o =  1.0693  v = -0.0016  0.7368  0.0318 -0.0016  0.6754  0.0000  0.0000  0.0000  0.0000  0.0000      0.0000  0.0000  0.0000  0.0000  0.0000  0.0000  0.0000  0.0000  0.0000  0.0000
atom =   8  type =  2  l = 2
 
 onsite density matrix
 
spin component  1
 
  0.9047 -0.0002 -0.0001 -0.1404 -0.0001
 -0.0002  1.0399  0.0067 -0.0002  0.0352
 -0.0001  0.0067  0.9984  0.0000 -0.0020
 -0.1404 -0.0002  0.0000  0.7785 -0.0000
 -0.0001  0.0352 -0.0020 -0.0000  1.0332
 
spin component  2
 
  0.8286  0.0002 -0.0001 -0.2428  0.0002
  0.0002  0.5494 -0.0295 -0.0000 -0.3513
 -0.0001 -0.0295  0.9942 -0.0000 -0.0295
 -0.2428 -0.0000 -0.0000  0.6375  0.0002
  0.0002 -0.3513 -0.0295  0.0002  0.7253
 
 occupancies and eigenvectors
 
  o =  0.2729  v =  0.0000  0.0000  0.0000  0.0000  0.0000 -0.0008  0.7868  0.0573 -0.0008  0.6146      0.0000  0.0000  0.0000  0.0000  0.0000  0.0000  0.0000  0.0000  0.0000  0.0000
  o =  0.4721  v =  0.0000  0.0000  0.0000  0.0000  0.0000  0.5630  0.0011  0.0002  0.8265  0.0004      0.0000  0.0000  0.0000  0.0000  0.0000  0.0000  0.0000  0.0000  0.0000  0.0000
  o =  0.6877  v = -0.5431 -0.0008 -0.0001 -0.8397 -0.0001  0.0000  0.0000  0.0000  0.0000  0.0000      0.0000  0.0000  0.0000  0.0000  0.0000  0.0000  0.0000  0.0000  0.0000  0.0000
  o =  0.9927  v =  0.0000  0.0000  0.0000  0.0000  0.0000 -0.0410  0.4083 -0.7934  0.0279 -0.4487      0.0000  0.0000  0.0000  0.0000  0.0000  0.0000  0.0000  0.0000  0.0000  0.0000
  o =  0.9935  v =  0.0305 -0.4409  0.7866 -0.0194  0.4308  0.0000  0.0000  0.0000  0.0000  0.0000      0.0000  0.0000  0.0000  0.0000  0.0000  0.0000  0.0000  0.0000  0.0000  0.0000
  o =  0.9940  v =  0.0000  0.0000  0.0000  0.0000  0.0000  0.8255  0.0210 -0.0387 -0.5623 -0.0228      0.0000  0.0000  0.0000  0.0000  0.0000  0.0000  0.0000  0.0000  0.0000  0.0000
  o =  0.9955  v =  0.8391  0.0175 -0.0268 -0.5428 -0.0170  0.0000  0.0000  0.0000  0.0000  0.0000      0.0000  0.0000  0.0000  0.0000  0.0000  0.0000  0.0000  0.0000  0.0000  0.0000
  o =  1.0034  v =  0.0000  0.0000  0.0000  0.0000  0.0000  0.0011 -0.4625 -0.6047 -0.0003  0.6484      0.0000  0.0000  0.0000  0.0000  0.0000  0.0000  0.0000  0.0000  0.0000  0.0000
  o =  1.0059  v = -0.0024  0.5052  0.6149  0.0011 -0.6055  0.0000  0.0000  0.0000  0.0000  0.0000      0.0000  0.0000  0.0000  0.0000  0.0000  0.0000  0.0000  0.0000  0.0000  0.0000
  o =  1.0721  v = -0.0006  0.7417  0.0494 -0.0004  0.6689  0.0000  0.0000  0.0000  0.0000  0.0000      0.0000  0.0000  0.0000  0.0000  0.0000  0.0000  0.0000  0.0000  0.0000  0.0000
atom =   9  type =  2  l = 2
 
 onsite density matrix
 
spin component  1
 
  0.8930  0.0003  0.0001 -0.1575  0.0002
  0.0003  1.0318  0.0054  0.0005  0.0282
  0.0001  0.0054  0.9964  0.0001 -0.0048
 -0.1575  0.0005  0.0001  0.7469  0.0002
  0.0002  0.0282 -0.0048  0.0002  1.0227
 
spin component  2
 
  0.8269 -0.0002  0.0001 -0.2442 -0.0003
 -0.0002  0.5423 -0.0303 -0.0001 -0.3553
  0.0001 -0.0303  0.9930  0.0000 -0.0308
 -0.2442 -0.0001  0.0000  0.6357 -0.0003
 -0.0003 -0.3553 -0.0308 -0.0003  0.7228
 
 occupancies and eigenvectors
 
  o =  0.2634  v =  0.0000  0.0000  0.0000  0.0000  0.0000  0.0012  0.7877  0.0586  0.0014  0.6132      0.0000  0.0000  0.0000  0.0000  0.0000  0.0000  0.0000  0.0000  0.0000  0.0000
  o =  0.4690  v =  0.0000  0.0000  0.0000  0.0000  0.0000 -0.5636  0.0016  0.0003 -0.8260  0.0009      0.0000  0.0000  0.0000  0.0000  0.0000  0.0000  0.0000  0.0000  0.0000  0.0000
  o =  0.6463  v =  0.5381 -0.0013 -0.0003  0.8429 -0.0006  0.0000  0.0000  0.0000  0.0000  0.0000      0.0000  0.0000  0.0000  0.0000  0.0000  0.0000  0.0000  0.0000  0.0000  0.0000
  o =  0.9903  v =  0.0086  0.4295 -0.7614 -0.0054 -0.4855  0.0000  0.0000  0.0000  0.0000  0.0000      0.0000  0.0000  0.0000  0.0000  0.0000  0.0000  0.0000  0.0000  0.0000  0.0000
  o =  0.9914  v =  0.0000  0.0000  0.0000  0.0000  0.0000 -0.0112 -0.4011  0.8043  0.0076  0.4382      0.0000  0.0000  0.0000  0.0000  0.0000  0.0000  0.0000  0.0000  0.0000  0.0000
  o =  0.9936  v =  0.0000  0.0000  0.0000  0.0000  0.0000  0.8259 -0.0064  0.0099 -0.5636  0.0070      0.0000  0.0000  0.0000  0.0000  0.0000  0.0000  0.0000  0.0000  0.0000  0.0000
  o =  0.9936  v =  0.8428 -0.0049  0.0072 -0.5381  0.0053  0.0000  0.0000  0.0000  0.0000  0.0000      0.0000  0.0000  0.0000  0.0000  0.0000  0.0000  0.0000  0.0000  0.0000  0.0000
  o =  1.0033  v =  0.0000  0.0000  0.0000  0.0000  0.0000 -0.0016 -0.4676 -0.5912  0.0007  0.6571      0.0000  0.0000  0.0000  0.0000  0.0000  0.0000  0.0000  0.0000  0.0000  0.0000
  o =  1.0048  v =  0.0010  0.4837  0.6480 -0.0001 -0.5884  0.0000  0.0000  0.0000  0.0000  0.0000      0.0000  0.0000  0.0000  0.0000  0.0000  0.0000  0.0000  0.0000  0.0000  0.0000
  o =  1.0558  v =  0.0009  0.7626  0.0179  0.0011  0.6466  0.0000  0.0000  0.0000  0.0000  0.0000      0.0000  0.0000  0.0000  0.0000  0.0000  0.0000  0.0000  0.0000  0.0000  0.0000
atom =  10  type =  2  l = 2
 
 onsite density matrix
 
spin component  1
 
  0.8908  0.0003  0.0001 -0.1608  0.0002
  0.0003  1.0313  0.0053  0.0004  0.0279
  0.0001  0.0053  0.9957  0.0000 -0.0044
 -0.1608  0.0004  0.0000  0.7402  0.0002
  0.0002  0.0279 -0.0044  0.0002  1.0216
 
spin component  2
 
  0.8245 -0.0002  0.0000 -0.2474 -0.0002
 -0.0002  0.5410 -0.0303 -0.0001 -0.3563
  0.0000 -0.0303  0.9923  0.0000 -0.0304
 -0.2474 -0.0001  0.0000  0.6293 -0.0002
 -0.0002 -0.3563 -0.0304 -0.0002  0.7211
 
 occupancies and eigenvectors
 
  o =  0.2611  v =  0.0000  0.0000  0.0000  0.0000  0.0000 -0.0010 -0.7874 -0.0581 -0.0011 -0.6136      0.0000  0.0000  0.0000  0.0000  0.0000  0.0000  0.0000  0.0000  0.0000  0.0000
  o =  0.4609  v =  0.0000  0.0000  0.0000  0.0000  0.0000  0.5626 -0.0013 -0.0002  0.8267 -0.0007      0.0000  0.0000  0.0000  0.0000  0.0000  0.0000  0.0000  0.0000  0.0000  0.0000
  o =  0.6380  v =  0.5367 -0.0011 -0.0001  0.8438 -0.0006  0.0000  0.0000  0.0000  0.0000  0.0000      0.0000  0.0000  0.0000  0.0000  0.0000  0.0000  0.0000  0.0000  0.0000  0.0000
  o =  0.9900  v =  0.0081  0.4226 -0.7693 -0.0051 -0.4791  0.0000  0.0000  0.0000  0.0000  0.0000      0.0000  0.0000  0.0000  0.0000  0.0000  0.0000  0.0000  0.0000  0.0000  0.0000
  o =  0.9910  v =  0.0000  0.0000  0.0000  0.0000  0.0000 -0.0033 -0.3939  0.8132  0.0022  0.4285      0.0000  0.0000  0.0000  0.0000  0.0000  0.0000  0.0000  0.0000  0.0000  0.0000
  o =  0.9928  v =  0.0000  0.0000  0.0000  0.0000  0.0000  0.8267 -0.0018  0.0031 -0.5626  0.0016      0.0000  0.0000  0.0000  0.0000  0.0000  0.0000  0.0000  0.0000  0.0000  0.0000
  o =  0.9930  v =  0.8438 -0.0052  0.0064 -0.5366  0.0051  0.0000  0.0000  0.0000  0.0000  0.0000      0.0000  0.0000  0.0000  0.0000  0.0000  0.0000  0.0000  0.0000  0.0000  0.0000
  o =  1.0023  v =  0.0000  0.0000  0.0000  0.0000  0.0000 -0.0003 -0.4741 -0.5791 -0.0001  0.6632      0.0000  0.0000  0.0000  0.0000  0.0000  0.0000  0.0000  0.0000  0.0000  0.0000
  o =  1.0038  v =  0.0014  0.4837  0.6385 -0.0006 -0.5986  0.0000  0.0000  0.0000  0.0000  0.0000      0.0000  0.0000  0.0000  0.0000  0.0000  0.0000  0.0000  0.0000  0.0000  0.0000
  o =  1.0548  v =  0.0011  0.7665  0.0212  0.0007  0.6419  0.0000  0.0000  0.0000  0.0000  0.0000      0.0000  0.0000  0.0000  0.0000  0.0000  0.0000  0.0000  0.0000  0.0000  0.0000
atom =  11  type =  2  l = 2
 
 onsite density matrix
 
spin component  1
 
  0.8931  0.0002  0.0000 -0.1579  0.0002
  0.0002  1.0368  0.0068  0.0004  0.0335
  0.0000  0.0068  0.9973  0.0000 -0.0024
 -0.1579  0.0004  0.0000  0.7493  0.0002
  0.0002  0.0335 -0.0024  0.0002  1.0319
 
spin component  2
 
  0.8261 -0.0002  0.0000 -0.2451 -0.0002
 -0.0002  0.5427 -0.0303 -0.0001 -0.3553
  0.0000 -0.0303  0.9931  0.0000 -0.0307
 -0.2451 -0.0001  0.0000  0.6342 -0.0002
 -0.0002 -0.3553 -0.0307 -0.0002  0.7225
 
 occupancies and eigenvectors
 
  o =  0.2636  v =  0.0000  0.0000  0.0000  0.0000  0.0000  0.0010  0.7874  0.0585  0.0011  0.6136      0.0000  0.0000  0.0000  0.0000  0.0000  0.0000  0.0000  0.0000  0.0000  0.0000
  o =  0.4670  v =  0.0000  0.0000  0.0000  0.0000  0.0000 -0.5637  0.0012  0.0002 -0.8260  0.0007      0.0000  0.0000  0.0000  0.0000  0.0000  0.0000  0.0000  0.0000  0.0000  0.0000
  o =  0.6477  v =  0.5410 -0.0010 -0.0001  0.8410 -0.0005  0.0000  0.0000  0.0000  0.0000  0.0000      0.0000  0.0000  0.0000  0.0000  0.0000  0.0000  0.0000  0.0000  0.0000  0.0000
  o =  0.9915  v =  0.0000  0.0000  0.0000  0.0000  0.0000 -0.0111 -0.4016  0.8038  0.0075  0.4387      0.0000  0.0000  0.0000  0.0000  0.0000  0.0000  0.0000  0.0000  0.0000  0.0000
  o =  0.9923  v =  0.0113  0.4370 -0.7958 -0.0071 -0.4190  0.0000  0.0000  0.0000  0.0000  0.0000      0.0000  0.0000  0.0000  0.0000  0.0000  0.0000  0.0000  0.0000  0.0000  0.0000
  o =  0.9933  v =  0.0000  0.0000  0.0000  0.0000  0.0000  0.8259 -0.0057  0.0105 -0.5636  0.0060      0.0000  0.0000  0.0000  0.0000  0.0000  0.0000  0.0000  0.0000  0.0000  0.0000
  o =  0.9947  v =  0.8409 -0.0061  0.0106 -0.5410  0.0054  0.0000  0.0000  0.0000  0.0000  0.0000      0.0000  0.0000  0.0000  0.0000  0.0000  0.0000  0.0000  0.0000  0.0000  0.0000
  o =  1.0032  v =  0.0000  0.0000  0.0000  0.0000  0.0000 -0.0004 -0.4676 -0.5919  0.0000  0.6565      0.0000  0.0000  0.0000  0.0000  0.0000  0.0000  0.0000  0.0000  0.0000  0.0000
  o =  1.0056  v = -0.0002 -0.5189 -0.6036 -0.0002  0.6053  0.0000  0.0000  0.0000  0.0000  0.0000      0.0000  0.0000  0.0000  0.0000  0.0000  0.0000  0.0000  0.0000  0.0000  0.0000
  o =  1.0681  v =  0.0009  0.7347  0.0471  0.0008  0.6768  0.0000  0.0000  0.0000  0.0000  0.0000      0.0000  0.0000  0.0000  0.0000  0.0000  0.0000  0.0000  0.0000  0.0000  0.0000
atom =  12  type =  2  l = 2
 
 onsite density matrix
 
spin component  1
 
  0.8931  0.0003  0.0001 -0.1580  0.0002
  0.0003  1.0368  0.0068  0.0004  0.0335
  0.0001  0.0068  0.9973  0.0000 -0.0025
 -0.1580  0.0004  0.0000  0.7489  0.0002
  0.0002  0.0335 -0.0025  0.0002  1.0318
 
spin component  2
 
  0.8260 -0.0002  0.0001 -0.2451 -0.0002
 -0.0002  0.5427 -0.0302 -0.0001 -0.3553
  0.0001 -0.0302  0.9931  0.0000 -0.0306
 -0.2451 -0.0001  0.0000  0.6343 -0.0003
 -0.0002 -0.3553 -0.0306 -0.0003  0.7225
 
 occupancies and eigenvectors
 
  o =  0.2636  v =  0.0000  0.0000  0.0000  0.0000  0.0000  0.0011  0.7875  0.0584  0.0013  0.6136      0.0000  0.0000  0.0000  0.0000  0.0000  0.0000  0.0000  0.0000  0.0000  0.0000
  o =  0.4670  v =  0.0000  0.0000  0.0000  0.0000  0.0000 -0.5638  0.0015  0.0003 -0.8259  0.0008      0.0000  0.0000  0.0000  0.0000  0.0000  0.0000  0.0000  0.0000  0.0000  0.0000
  o =  0.6473  v =  0.5408 -0.0013 -0.0002  0.8411 -0.0006  0.0000  0.0000  0.0000  0.0000  0.0000      0.0000  0.0000  0.0000  0.0000  0.0000  0.0000  0.0000  0.0000  0.0000  0.0000
  o =  0.9915  v =  0.0000  0.0000  0.0000  0.0000  0.0000 -0.0131 -0.4015  0.8038  0.0089  0.4388      0.0000  0.0000  0.0000  0.0000  0.0000  0.0000  0.0000  0.0000  0.0000  0.0000
  o =  0.9923  v =  0.0142  0.4365 -0.7959 -0.0089 -0.4192  0.0000  0.0000  0.0000  0.0000  0.0000      0.0000  0.0000  0.0000  0.0000  0.0000  0.0000  0.0000  0.0000  0.0000  0.0000
  o =  0.9934  v =  0.0000  0.0000  0.0000  0.0000  0.0000  0.8258 -0.0066  0.0125 -0.5637  0.0071      0.0000  0.0000  0.0000  0.0000  0.0000  0.0000  0.0000  0.0000  0.0000  0.0000
  o =  0.9947  v =  0.8410 -0.0077  0.0130 -0.5408  0.0072  0.0000  0.0000  0.0000  0.0000  0.0000      0.0000  0.0000  0.0000  0.0000  0.0000  0.0000  0.0000  0.0000  0.0000  0.0000
  o =  1.0032  v =  0.0000  0.0000  0.0000  0.0000  0.0000 -0.0005 -0.4676 -0.5919 -0.0001  0.6565      0.0000  0.0000  0.0000  0.0000  0.0000  0.0000  0.0000  0.0000  0.0000  0.0000
  o =  1.0056  v = -0.0006 -0.5191 -0.6035 -0.0001  0.6053  0.0000  0.0000  0.0000  0.0000  0.0000      0.0000  0.0000  0.0000  0.0000  0.0000  0.0000  0.0000  0.0000  0.0000  0.0000
  o =  1.0680  v =  0.0009  0.7348  0.0466  0.0010  0.6767  0.0000  0.0000  0.0000  0.0000  0.0000      0.0000  0.0000  0.0000  0.0000  0.0000  0.0000  0.0000  0.0000  0.0000  0.0000
    SETDIJ:  cpu time    0.4898: real time    0.4907
    TRIAL :  cpu time    6.7134: real time    6.7185
    CORREC:  cpu time    2.1635: real time    2.1658
    CHARGE:  cpu time    0.4090: real time    0.4090
    --------------------------------------------
      LOOP:  cpu time    9.8160: real time    9.8270

 eigenvalue-minimisations  :     0
 total energy-change (2. order) :-0.2256089E+01  (-0.5754466E+00)
 number of electron     138.0000063 magnetization       6.0000003
 augmentation part       44.2236430 magnetization       5.0088231

 Free energy of the ion-electron system (eV)
  ---------------------------------------------------
  alpha Z        PSCENC =       428.94280166
  Ewald energy   TEWEN  =     -8310.02910685
  -Hartree energ DENC   =     -3970.37631896
  -exchange      EXHF   =         0.00000000
  -V(xc)+E(xc)   XCENC  =       516.32485343
  PAW double counting   =     13783.84793517   -14039.31517788
  entropy T*S    EENTRO =         0.00096293
  eigenvalues    EBANDS =      -194.94916064
  atomic energy  EATOM  =     11661.26050125
  ---------------------------------------------------
  free energy    TOTEN  =      -124.28204279 eV

  energy without entropy =     -124.28300572  energy(sigma->0) =     -124.28236377


--------------------------------------------------------------------------------------------------------




----------------------------------------- Iteration    1(   3)  ---------------------------------------


    POTLOK:  cpu time    0.0383: real time    0.0383
atom =   7  type =  2  l = 2
 
 onsite density matrix
 
spin component  1
 
  0.9055 -0.0004 -0.0001 -0.1385 -0.0003
 -0.0004  1.0388  0.0062 -0.0006  0.0337
 -0.0001  0.0062  0.9994 -0.0001 -0.0036
 -0.1385 -0.0006 -0.0001  0.7864 -0.0003
 -0.0003  0.0337 -0.0036 -0.0003  1.0336
 
spin component  2
 
  0.8296  0.0002 -0.0002 -0.2409  0.0002
  0.0002  0.5438 -0.0307  0.0003 -0.3546
 -0.0002 -0.0307  0.9950 -0.0001 -0.0318
 -0.2409  0.0003 -0.0001  0.6442  0.0004
  0.0002 -0.3546 -0.0318  0.0004  0.7251
 
 occupancies and eigenvectors
 
  o =  0.2658  v =  0.0000  0.0000  0.0000  0.0000  0.0000 -0.0014  0.7881  0.0599 -0.0021  0.6126      0.0000  0.0000  0.0000  0.0000  0.0000  0.0000  0.0000  0.0000  0.0000  0.0000
  o =  0.4787  v =  0.0000  0.0000  0.0000  0.0000  0.0000  0.5661  0.0021  0.0005  0.8243  0.0014      0.0000  0.0000  0.0000  0.0000  0.0000  0.0000  0.0000  0.0000  0.0000  0.0000
  o =  0.6952  v = -0.5499 -0.0020 -0.0004 -0.8352 -0.0012  0.0000  0.0000  0.0000  0.0000  0.0000      0.0000  0.0000  0.0000  0.0000  0.0000  0.0000  0.0000  0.0000  0.0000  0.0000
  o =  0.9926  v =  0.0000  0.0000  0.0000  0.0000  0.0000 -0.0238  0.4204 -0.7787  0.0165 -0.4647      0.0000  0.0000  0.0000  0.0000  0.0000  0.0000  0.0000  0.0000  0.0000  0.0000
  o =  0.9938  v =  0.0288 -0.4409  0.7786 -0.0189  0.4452  0.0000  0.0000  0.0000  0.0000  0.0000      0.0000  0.0000  0.0000  0.0000  0.0000  0.0000  0.0000  0.0000  0.0000  0.0000
  o =  0.9950  v =  0.0000  0.0000  0.0000  0.0000  0.0000  0.8240  0.0132 -0.0211 -0.5658 -0.0150      0.0000  0.0000  0.0000  0.0000  0.0000  0.0000  0.0000  0.0000  0.0000  0.0000
  o =  0.9967  v =  0.8347  0.0161 -0.0261 -0.5496 -0.0156  0.0000  0.0000  0.0000  0.0000  0.0000      0.0000  0.0000  0.0000  0.0000  0.0000  0.0000  0.0000  0.0000  0.0000  0.0000
  o =  1.0056  v =  0.0000  0.0000  0.0000  0.0000  0.0000  0.0022 -0.4494 -0.6241 -0.0010  0.6391      0.0000  0.0000  0.0000  0.0000  0.0000  0.0000  0.0000  0.0000  0.0000  0.0000
  o =  1.0079  v = -0.0012  0.5144  0.6263  0.0001 -0.5858  0.0000  0.0000  0.0000  0.0000  0.0000      0.0000  0.0000  0.0000  0.0000  0.0000  0.0000  0.0000  0.0000  0.0000  0.0000
  o =  1.0701  v = -0.0017  0.7354  0.0293 -0.0016  0.6770  0.0000  0.0000  0.0000  0.0000  0.0000      0.0000  0.0000  0.0000  0.0000  0.0000  0.0000  0.0000  0.0000  0.0000  0.0000
atom =   8  type =  2  l = 2
 
 onsite density matrix
 
spin component  1
 
  0.9148 -0.0001 -0.0001 -0.1246 -0.0000
 -0.0001  1.0410  0.0067 -0.0001  0.0356
 -0.0001  0.0067  0.9987  0.0001 -0.0017
 -0.1246 -0.0001  0.0001  0.8035  0.0000
 -0.0000  0.0356 -0.0017  0.0000  1.0331
 
spin component  2
 
  0.8279  0.0002 -0.0001 -0.2446  0.0002
  0.0002  0.5502 -0.0287 -0.0000 -0.3523
 -0.0001 -0.0287  0.9947  0.0000 -0.0287
 -0.2446 -0.0000  0.0000  0.6346  0.0002
  0.0002 -0.3523 -0.0287  0.0002  0.7233
 
 occupancies and eigenvectors
 
  o =  0.2717  v =  0.0000  0.0000  0.0000  0.0000  0.0000 -0.0008  0.7855  0.0556 -0.0008  0.6164      0.0000  0.0000  0.0000  0.0000  0.0000  0.0000  0.0000  0.0000  0.0000  0.0000
  o =  0.4683  v =  0.0000  0.0000  0.0000  0.0000  0.0000  0.5623  0.0010  0.0002  0.8269  0.0005      0.0000  0.0000  0.0000  0.0000  0.0000  0.0000  0.0000  0.0000  0.0000  0.0000
  o =  0.7227  v = -0.5440 -0.0004  0.0001 -0.8391  0.0001  0.0000  0.0000  0.0000  0.0000  0.0000      0.0000  0.0000  0.0000  0.0000  0.0000  0.0000  0.0000  0.0000  0.0000  0.0000
  o =  0.9932  v =  0.0000  0.0000  0.0000  0.0000  0.0000 -0.0757  0.4093 -0.7880  0.0514 -0.4506      0.0000  0.0000  0.0000  0.0000  0.0000  0.0000  0.0000  0.0000  0.0000  0.0000
  o =  0.9940  v =  0.0468 -0.4396  0.7848 -0.0300  0.4333  0.0000  0.0000  0.0000  0.0000  0.0000      0.0000  0.0000  0.0000  0.0000  0.0000  0.0000  0.0000  0.0000  0.0000  0.0000
[...]
     61       3.3407      1.00000
     62       3.4117      1.00000
     63       3.5190      1.00000
     64       3.6318      1.00000
     65       3.7018      1.00000
     66       3.8830      1.00047
     67       6.5690     -0.00000
     68       6.9064     -0.00000
     69       6.9523     -0.00000
     70       7.1617     -0.00000
     71       7.3480     -0.00000
     72       7.5096     -0.00000
     73       7.6130     -0.00000
     74       7.9855     -0.00000
     75       8.0062     -0.00000
     76       8.0672     -0.00000
     77       8.2008     -0.00000
     78       8.2825     -0.00000
     79      13.2640      0.00000
     80      13.9777      0.00000
     81      14.1879      0.00000
     82      14.2694      0.00000
     83      14.6958      0.00000
     84      14.7893      0.00000
     85      15.4260      0.00000
     86      15.9091      0.00000
     87      16.0729      0.00000
     88      16.3871      0.00000
     89      16.7486      0.00000
     90      16.9561      0.00000
     91      17.2430      0.00000
     92      17.4061      0.00000
     93      17.5821      0.00000
     94      17.6748      0.00000
     95      17.9257      0.00000
     96      18.2340      0.00000

 k-point    42 :      -0.1250    0.4000    0.5000
  band No.  band energies     occupation 
      1     -14.0061      1.00000
      2     -13.6336      1.00000
      3     -13.5995      1.00000
      4     -13.3294      1.00000
      5     -13.2289      1.00000
      6     -12.9122      1.00000
      7     -12.7894      1.00000
      8     -12.6494      1.00000
      9     -12.4140      1.00000
     10     -12.3269      1.00000
     11     -12.1431      1.00000
     12     -11.9211      1.00000
     13      -2.0951      1.00000
     14      -1.7798      1.00000
     15      -1.7295      1.00000
     16      -1.5477      1.00000
     17      -1.4274      1.00000
     18      -1.3007      1.00000
     19      -1.1443      1.00000
     20      -1.0140      1.00000
     21      -0.8228      1.00000
     22      -0.7365      1.00000
     23      -0.5450      1.00000
     24      -0.4916      1.00000
     25      -0.3169      1.00000
     26      -0.0552      1.00000
     27      -0.0329      1.00000
     28       0.2264      1.00000
     29       0.2870      1.00000
     30       0.3248      1.00000
     31       0.3537      1.00000
     32       0.5394      1.00000
     33       0.6285      1.00000
     34       0.6486      1.00000
     35       0.8205      1.00000
     36       0.9768      1.00000
     37       1.0850      1.00000
     38       1.3599      1.00000
     39       1.3769      1.00000
     40       1.4603      1.00000
     41       1.6300      1.00000
     42       1.6984      1.00000
     43       1.8057      1.00000
     44       1.8809      1.00000
     45       1.9144      1.00000
     46       2.1122      1.00000
     47       2.1992      1.00000
     48       2.3423      1.00000
     49       2.3971      1.00000
     50       2.6172      1.00000
     51       2.7415      1.00000
     52       2.8086      1.00000
     53       2.9343      1.00000
     54       2.9611      1.00000
     55       3.0714      1.00000
     56       3.1555      1.00000
     57       3.2239      1.00000
     58       3.2748      1.00000
     59       3.4312      1.00000
     60       3.4806      1.00000
     61       3.5215      1.00000
     62       3.6489      1.00000
     63       3.7460      1.00001
     64       3.8589      1.00026
     65       3.9198      1.00110
     66       4.1600      1.03449
     67       6.8984     -0.00000
     68       7.2285     -0.00000
     69       7.2482     -0.00000
     70       7.3759     -0.00000
     71       7.4685     -0.00000
     72       7.5781     -0.00000
     73       7.6483     -0.00000
     74       7.8318     -0.00000
     75       7.9072     -0.00000
     76       7.9648     -0.00000
     77       8.0482     -0.00000
     78       8.1677     -0.00000
     79      13.1076      0.00000
     80      13.3292      0.00000
     81      13.8760      0.00000
     82      14.1666      0.00000
     83      14.4358      0.00000
     84      14.6535      0.00000
     85      14.8800      0.00000
     86      15.5615      0.00000
     87      15.6478      0.00000
     88      15.8362      0.00000
     89      16.4267      0.00000
     90      16.7717      0.00000
     91      17.3167      0.00000
     92      17.5477      0.00000
     93      17.7255      0.00000
     94      17.8972      0.00000
     95      18.1192      0.00000
     96      18.2018      0.00000


--------------------------------------------------------------------------------------------------------


 soft charge-density along one line, spin component           1
         0         1         2         3         4         5         6         7         8         9
 total charge-density along one line
 
 soft charge-density along one line, spin component           2
         0         1         2         3         4         5         6         7         8         9
 total charge-density along one line
 
 pseudopotential strength for first ion, spin component:           1
  1.210   5.321   0.002  -0.003  -0.000
  5.321  22.434   0.008  -0.011  -0.000
  0.002   0.008  -0.188  -0.003   0.000
 -0.003  -0.011  -0.003  -0.190   0.000
 -0.000  -0.000   0.000   0.000  -0.195
 pseudopotential strength for first ion, spin component:           2
  1.210   5.319   0.002  -0.003  -0.000
  5.319  22.427   0.008  -0.011  -0.000
  0.002   0.008  -0.191  -0.002   0.000
 -0.003  -0.011  -0.002  -0.192   0.000
 -0.000  -0.000   0.000   0.000  -0.196
 total augmentation occupancy for first ion, spin component:           1
  1.003  -0.031  -0.002   0.009  -0.000
 -0.031   0.001   0.000  -0.000   0.000
 -0.002   0.000   0.098  -0.014   0.000
  0.009  -0.000  -0.014   0.099   0.000
 -0.000   0.000   0.000   0.000   0.074
 total augmentation occupancy for first ion, spin component:           2
  0.029  -0.001  -0.002   0.001   0.000
 -0.001   0.000   0.000  -0.000   0.000
 -0.002   0.000   0.003  -0.003  -0.000
  0.001  -0.000  -0.003   0.002  -0.000
  0.000   0.000  -0.000  -0.000  -0.001


------------------------ aborting loop because EDIFF is reached ----------------------------------------


 


 total charge     
 
# of ion     s       p       d       tot
----------------------------------------
  1        0.095   0.196   0.000   0.291
  2        0.222   0.558   0.000   0.780
  3        0.097   0.202   0.000   0.299
  4        0.097   0.200   0.000   0.297
  5        0.097   0.201   0.000   0.297
  6        0.097   0.201   0.000   0.298
  7        0.477   0.730   8.419   9.626
  8        0.474   0.728   8.456   9.657
  9        0.469   0.718   8.381   9.569
 10        0.464   0.710   8.365   9.539
 11        0.467   0.715   8.384   9.567
 12        0.467   0.716   8.384   9.567
 13        1.570   3.377   0.000   4.948
 14        1.562   3.409   0.000   4.971
 15        1.557   3.448   0.000   5.005
 16        1.558   3.447   0.000   5.005
 17        1.558   3.445   0.000   5.003
 18        1.558   3.445   0.000   5.003
 19        1.560   3.446   0.000   5.006
 20        1.567   3.565   0.000   5.131
 21        1.560   3.443   0.000   5.003
 22        1.559   3.447   0.000   5.006
 23        1.557   3.449   0.000   5.006
 24        1.559   3.441   0.000   5.000
------------------------------------------------
tot       22.247  47.238  50.390 119.875
 


 magnetization (x)
 
# of ion     s       p       d       tot
----------------------------------------
  1        0.003   0.004   0.000   0.007
  2        0.002   0.001   0.000   0.003
  3        0.003   0.004   0.000   0.007
  4        0.003   0.004   0.000   0.007
  5        0.003   0.003   0.000   0.006
  6        0.003   0.003   0.000   0.006
  7        0.007   0.004   0.987   0.998
  8        0.007   0.004   1.256   1.267
  9        0.008   0.005   0.954   0.967
 10        0.007   0.005   0.971   0.984
 11        0.007   0.004   0.994   1.005
 12        0.007   0.004   0.991   1.001
 13        0.005  -0.075   0.000  -0.070
 14        0.004  -0.064   0.000  -0.060
 15        0.005  -0.002   0.000   0.003
 16        0.005  -0.004   0.000   0.001
 17        0.005  -0.003   0.000   0.002
 18        0.005  -0.004   0.000   0.001
 19        0.005  -0.007   0.000  -0.002
 20        0.007   0.023   0.000   0.030
 21        0.007  -0.036   0.000  -0.029
 22        0.005  -0.003   0.000   0.002
 23        0.005  -0.006   0.000  -0.001
 24        0.005  -0.031   0.000  -0.026
------------------------------------------------
tot        0.125  -0.168   6.153   6.111
 
    FORLOC:  cpu time    0.0096: real time    0.0096
    FORNL :  cpu time    3.0036: real time    3.0059
    STRESS:  cpu time    8.9007: real time    8.9769
    FORCOR:  cpu time    0.0551: real time    0.0562
    OFIELD:  cpu time    0.0002: real time    0.0002

  FORCE on cell =-STRESS in cart. coord.  units (eV):
  Direction    XX          YY          ZZ          XY          YZ          ZX
  --------------------------------------------------------------------------------------
  Alpha Z   428.94280   428.94280   428.94280
  Ewald   -1082.73698 -1849.76689 -5377.54831    -1.63750   355.17412    -1.49882
  Hartree  2537.70719  2173.46259  -739.98456    -0.04513   149.08399    -0.06268
  E(xc)    -698.03766  -697.45931  -697.93148     0.04021    -0.26299     0.03076
  Local   -4031.28016 -2971.84485  3476.67424     1.37669  -457.73225     1.24536
  n-local  -300.93973  -318.11006  -315.54221    -0.23331    11.86941    -0.21096
  augment  1115.67587  1143.84937  1136.51327    -0.00532   -18.82395     0.01822
  Kinetic  2040.21100  2094.10711  2093.14346    -0.13115   -39.09176    -0.08540
  Fock        0.00000     0.00000     0.00000     0.00000     0.00000     0.00000
  -------------------------------------------------------------------------------------
  Total       9.54234     3.18076     4.26720    -0.63550     0.21658    -0.56353
  in kB      79.25141    26.41700    35.44016    -5.27802     1.79877    -4.68028
  external pressure =       47.04 kB  Pullay stress =        0.00 kB


 VOLUME and BASIS-vectors are now :
 -----------------------------------------------------------------------------
  energy-cutoff  :      500.00
  volume of cell :      192.91
      direct lattice vectors                 reciprocal lattice vectors
     2.728934050  0.000000000  0.000000000     0.366443447  0.000000000  0.000000000
     0.000000000  5.030428886  0.000000000     0.000000000  0.198790207  0.000000000
     0.000000000  0.000000000 14.052716830     0.000000000  0.000000000  0.071160617

  length of vectors
     2.728934050  5.030428886 14.052716830     0.366443447  0.198790207  0.071160617


 FORCES acting on ions:
    Electron-Ion                     Ewald-Force                    Non-Local-Force
 -----------------------------------------------------------------------------------------------
   -.185E-01 0.633E+00 -.193E+01   0.247E-01 -.916E+00 0.235E+01   0.514E-02 0.135E-01 -.912E-01
   0.265E+01 -.113E+02 -.584E+02   -.264E+01 0.115E+02 0.592E+02   -.135E+01 0.339E+01 0.440E+01
   0.743E-01 0.327E-01 0.597E+00   -.691E-01 0.294E-01 -.681E+00   -.145E-01 -.444E-01 -.741E-02
   -.216E-03 -.552E-01 0.659E+00   0.770E-04 0.839E-02 -.789E+00   0.805E-03 0.412E-02 0.284E-01
   0.242E-02 0.335E-01 0.698E+00   -.213E-02 -.831E-02 -.793E+00   -.517E-03 -.835E-02 0.215E-01
   0.206E-02 -.883E-01 0.645E+00   -.156E-02 0.258E-01 -.761E+00   -.583E-03 0.916E-02 0.340E-01
   -.269E+00 -.923E+01 -.101E-01   0.424E+00 0.119E+02 -.223E+01   -.840E-01 -.165E+01 0.132E+01
   0.196E+00 0.111E+02 0.396E+01   -.319E+00 -.147E+02 -.774E+01   0.888E-01 0.203E+01 0.205E+01
   0.351E-01 0.400E+01 0.694E+01   -.307E-01 -.451E+01 -.803E+01   -.978E-03 0.265E+00 0.641E+00
   0.332E-01 -.399E+01 0.902E+01   -.312E-01 0.465E+01 -.105E+02   -.248E-02 -.412E+00 0.817E+00
   -.269E-01 0.125E+00 0.574E+01   0.270E-01 -.130E+00 -.588E+01   0.121E-03 -.885E-03 0.937E-01
   -.399E-01 -.119E+00 0.606E+01   0.370E-01 0.144E+00 -.619E+01   0.286E-02 -.282E-01 0.919E-01
   -.152E+00 0.307E+02 0.322E+03   0.190E+00 -.382E+02 -.339E+03   -.380E-01 0.774E+01 0.176E+02
   -.912E-01 0.198E+02 0.318E+03   0.829E-01 -.223E+02 -.332E+03   0.237E-01 0.222E+01 0.144E+02
   0.115E+00 -.251E+02 -.316E+03   -.119E+00 0.301E+02 0.329E+03   -.416E-02 -.500E+01 -.129E+02
   0.114E+00 -.252E+02 -.316E+03   -.136E+00 0.300E+02 0.329E+03   0.159E-01 -.483E+01 -.130E+02
   0.194E-01 0.252E+02 0.323E+03   -.159E-01 -.300E+02 -.337E+03   -.931E-02 0.479E+01 0.136E+02
   -.825E-02 0.250E+02 0.323E+03   0.167E-01 -.299E+02 -.337E+03   -.134E-01 0.490E+01 0.135E+02
   0.632E-01 -.284E+02 -.332E+03   -.168E+00 0.342E+02 0.348E+03   0.114E+00 -.585E+01 -.161E+02
   -.183E+01 -.180E+02 -.329E+03   0.291E+01 0.179E+02 0.341E+03   0.745E-01 -.199E+01 -.136E+02
   0.929E-02 0.275E+02 0.323E+03   0.191E-02 -.314E+02 -.336E+03   -.170E-01 0.366E+01 0.122E+02
   0.139E+00 0.236E+02 0.325E+03   -.172E+00 -.283E+02 -.340E+03   0.336E-01 0.471E+01 0.145E+02
   0.167E-01 -.251E+02 -.315E+03   -.270E-01 0.297E+02 0.328E+03   0.155E-01 -.443E+01 -.126E+02
   -.300E-01 -.254E+02 -.314E+03   0.251E-01 0.302E+02 0.326E+03   0.120E-01 -.476E+01 -.128E+02
 -----------------------------------------------------------------------------------------------
   0.115E+01 -.473E+01 -.142E+02   -.153E-13 -.249E-13 0.114E-12   -.115E+01 0.474E+01 0.142E+02
 
 
 POSITION                                       TOTAL-FORCE (eV/Angst)
 -----------------------------------------------------------------------------------
      2.72447      1.35256      2.34268         0.010279     -0.264932      0.346010
      1.40986      3.56602      1.49926        -1.189697      3.106305      4.519125
      1.37342      0.50416     11.71047        -0.006694      0.022609     -0.091202
      0.00420      3.01936     11.71012         0.000411     -0.045463     -0.106637
      0.00020      4.70101      7.02623        -0.000246      0.016509     -0.076689
      1.36467      2.18581      7.02623        -0.000086     -0.056969     -0.087918
      0.00012      4.70143     14.05266         0.066234      0.967196     -0.863688
      1.36466      2.18630      0.00012        -0.032924     -1.507230     -1.662886
      1.35754      0.51813      4.68581         0.003613     -0.235957     -0.455767
      2.72213      3.03325      4.68535        -0.000431      0.230327     -0.608762
      0.00698      1.33908      9.36738        -0.000097     -0.006632     -0.050380
      1.37152      3.85409      9.36675        -0.000322     -0.004454     -0.044482
      2.72135      4.82224      3.64455        -0.000390      0.218855      0.542725
      1.35715      2.30695      3.64407         0.015299     -0.294488      0.099334
      0.00771      4.58047     10.40812        -0.008252      0.018516      0.087463
      1.37188      2.06538     10.40866        -0.005981      0.031742      0.073277
      1.37115      0.61300      8.32568        -0.005906     -0.002676      0.060082
      0.00659      3.12779      8.32550        -0.005043      0.014236      0.046638
      1.36394      0.39734      1.04130         0.008447     -0.051385     -0.278343
      2.72846      2.91205      1.04218         1.145591     -2.062031     -1.459387
      0.00068      1.46002     13.01092        -0.005895     -0.293053     -0.303095
      1.36535      3.97465     13.01149         0.000007     -0.025323      0.152554
      2.72252      1.24454      5.72702         0.005081      0.143002      0.137452
      1.35793      3.75939      5.72689         0.007006      0.081297      0.024574
 -----------------------------------------------------------------------------------
    total drift:                                0.002907      0.011682      0.007836


--------------------------------------------------------------------------------------------------------



  FREE ENERGIE OF THE ION-ELECTRON SYSTEM (eV)
  ---------------------------------------------------
  free  energy   TOTEN  =      -125.37072113 eV

  energy  without entropy=     -125.37207129  energy(sigma->0) =     -125.37117118
 


--------------------------------------------------------------------------------------------------------


    POTLOK:  cpu time    0.4959: real time    0.5561


--------------------------------------------------------------------------------------------------------


 writing wavefunctions
     LOOP+:  cpu time  509.4684: real time  516.1305
    4ORBIT:  cpu time    0.0000: real time    0.0000
 


 total charge     
 
# of ion     s       p       d       tot
----------------------------------------
  1        0.095   0.196   0.000   0.291
  2        0.222   0.558   0.000   0.780
  3        0.097   0.202   0.000   0.299
  4        0.097   0.200   0.000   0.297
  5        0.097   0.201   0.000   0.297
  6        0.097   0.201   0.000   0.298
  7        0.477   0.730   8.419   9.626
  8        0.474   0.728   8.456   9.657
  9        0.469   0.718   8.381   9.569
 10        0.464   0.710   8.365   9.539
 11        0.467   0.715   8.384   9.567
 12        0.467   0.716   8.384   9.567
 13        1.570   3.377   0.000   4.948
 14        1.562   3.409   0.000   4.971
 15        1.557   3.448   0.000   5.005
 16        1.558   3.447   0.000   5.005
 17        1.558   3.445   0.000   5.003
 18        1.558   3.445   0.000   5.003
 19        1.560   3.446   0.000   5.006
 20        1.567   3.565   0.000   5.131
 21        1.560   3.443   0.000   5.003
 22        1.559   3.447   0.000   5.006
 23        1.557   3.449   0.000   5.006
 24        1.559   3.441   0.000   5.000
------------------------------------------------
tot       22.247  47.238  50.390 119.875
 


 magnetization (x)
 
# of ion     s       p       d       tot
----------------------------------------
  1        0.003   0.004   0.000   0.007
  2        0.002   0.001   0.000   0.003
  3        0.003   0.004   0.000   0.007
  4        0.003   0.004   0.000   0.007
  5        0.003   0.003   0.000   0.006
  6        0.003   0.003   0.000   0.006
  7        0.007   0.004   0.987   0.998
  8        0.007   0.004   1.256   1.267
  9        0.008   0.005   0.954   0.967
 10        0.007   0.005   0.971   0.984
 11        0.007   0.004   0.994   1.005
 12        0.007   0.004   0.991   1.001
 13        0.005  -0.075   0.000  -0.070
 14        0.004  -0.064   0.000  -0.060
 15        0.005  -0.002   0.000   0.003
 16        0.005  -0.004   0.000   0.001
 17        0.005  -0.003   0.000   0.002
 18        0.005  -0.004   0.000   0.001
 19        0.005  -0.007   0.000  -0.002
 20        0.007   0.023   0.000   0.030
 21        0.007  -0.036   0.000  -0.029
 22        0.005  -0.003   0.000   0.002
 23        0.005  -0.006   0.000  -0.001
 24        0.005  -0.031   0.000  -0.026
------------------------------------------------
tot        0.125  -0.168   6.153   6.111
 

 total amount of memory used by VASP on root node   139538. kBytes
========================================================================

   base      :      30000. kBytes
   nonlr-proj:      13320. kBytes
   fftplans  :       1477. kBytes
   grid      :      10001. kBytes
   one-center:        746. kBytes
   wavefun   :      83994. kBytes
 
  
  
 General timing and accounting informations for this job:
 ========================================================
  
                  Total CPU time used (sec):      534.127
                            User time (sec):      493.896
                          System time (sec):       40.231
                         Elapsed time (sec):      541.334
  
                   Maximum memory used (kb):      265952.
                   Average memory used (kb):           0.
  
                          Minor page faults:       171268
                          Major page faults:            3
                 Voluntary context switches:         9828
