 # C:\Users\Computer\Desktop\To_Be_Copied\R
 
         180  atoms
          60  bonds
           4  atom types
           1  bond types
 
      0.00000000       5.70128441  xlo xhi
      0.00000000      12.14108724  ylo yhi
      0.00000000      13.91111452  zlo zhi
 
Masses
 
            1   6.94000000              # Li core
            2   58.69340000             # Ni core
            3   15.99900000             # O  core
            4   1.59990000              # O  shell
 
Atoms # full
 
         1      1    1   0.000000       -1.39265895      12.35352135      13.90068626
         2      1    1   0.000000        4.31525183       2.63956142      13.90276432
         3      1    1   0.000000       -2.82443118       4.82894039       0.02084278
         4      1    1   0.000000        1.46435058       7.47287464      13.87890625
         5      1    1   0.000000       -0.00153887       9.72288322       0.01517861
         6      1    1   0.000000        2.88956952       0.25985601      13.89025116
         7      1    1   0.000000        1.53760707       2.46891737       0.02633987
         8      1    1   0.000000        0.05915565       4.81177330       0.01262735
         9      1    1   0.000000       -1.39531827       7.48764515      13.89929295
        10      1    1   0.000000       -2.85905552       9.69279957       0.00159669
        11      1    1   0.000000        1.45557964       0.91103876       4.64847565
        12      1    1   0.000000        0.01295483       3.29216385       4.62365961
        13      1    1   0.000000       -1.36831164       5.68820810       4.63263416
        14      1    1   0.000000       -2.85792470       8.16801453       4.64000130
        15      1    1   0.000000       -4.28142881      10.64643002       4.62831831
        16      1    1   0.000000        4.33774185       0.86346883       4.62066317
        17      1    1   0.000000        2.88893127       3.30743766       4.64109945
        18      1    1   0.000000        1.36384177       5.69311237       4.64568424
        19      1    1   0.000000        0.00409536       8.17539120       4.64261246
        20      1    1   0.000000       -1.33582950      10.64251709       4.64477587
        21      1    1   0.000000        0.01126692       1.75169945       9.26771545
        22      1    1   0.000000       -1.38210869       4.19392872       9.29822826
        23      1    1   0.000000       -2.85933971       6.64999104       9.29314804
        24      1    1   0.000000       -4.27701235       9.04164219       9.30739021
        25      1    1   0.000000       -5.70788336      11.50688171       9.22781753
        26      1    1   0.000000        2.84119082       1.80269098       9.27635860
        27      1    1   0.000000        1.45049751       4.19221211       9.27719593
        28      1    1   0.000000        0.02607176       6.59029341       9.28425694
        29      1    1   0.000000       -1.39849496       9.06465244       9.27272224
        30      1    1   0.000000       -2.81803799      11.49400425       9.24458981
        31      2    2   0.000000        0.09418802       1.65676594       2.30840635
        32      2    2   0.000000        1.40892386       7.37431049       6.97292614
        33      2    2   0.000000       -2.82207274       8.24617100      11.61526012
        34      2    2   0.000000       -5.65765047      11.38455582       2.34018540
        35      2    2   0.000000       -4.30858517       8.96672726       2.30099297
        36      2    2   0.000000        0.04431336       8.25822830      11.59738350
        37      2    2   0.000000        4.26824427       1.01508606      11.57442093
        38      2    2   0.000000        1.42690647       1.02294517      11.58141518
        39      2    2   0.000000       -1.44001341       7.36340094       6.97041368
        40      2    2   0.000000        0.05813864       3.41438007      11.58862972
        41      2    2   0.000000        1.45211363       2.54623890       6.95689058
        42      2    2   0.000000        2.89527416       3.42856860      11.62489510
        43      2    2   0.000000       -1.34964097       5.82084274      11.64161682
        44      2    2   0.000000       -2.80818677       4.95732975       6.98942232
        45      2    2   0.000000       -1.39012098       4.05725098       2.32050085
        46      2    2   0.000000        1.47102010       4.07152510       2.33382821
        47      2    2   0.000000       -2.81591845      11.38011551       2.30402780
        48      2    2   0.000000        2.84313130       0.14028081       6.93387270
        49      2    2   0.000000        0.03785744       4.95909691       6.94485617
        50      2    2   0.000000       -1.45116699       8.97060776       2.31384730
        51      2    2   0.000000       -1.38431370       2.54397774       6.94110727
        52      2    2   0.000000        0.02248772       9.82561111       6.95383883
        53      2    2   0.000000       -4.24661112      10.71143246      11.56795406
        54      2    2   0.000000       -0.01768663       6.50260592       2.33463836
        55      2    2   0.000000        5.69518280       0.13257273       6.92704964
        56      2    2   0.000000        1.47397673       5.82865667      11.61653042
        57      2    2   0.000000        2.94565630       1.65108454       2.31411099
        58      2    2   0.000000       -2.87020016       6.52416563       2.29898715
        59      2    2   0.000000       -2.81654573       9.82180405       6.97175026
        60      2    2   0.000000       -1.36638701      10.71761799      11.53927231
        61      3    3   0.000000        0.14413619       0.10283669       3.35839129
        62      3    4   0.000000        0.14413619       0.10283669       3.35839129
        63      3    3   0.000000       -1.36263716       2.46106601       3.31675100
        64      3    4   0.000000       -1.36263716       2.46106601       3.31675100
        65      3    3   0.000000        2.75955105       4.96518421       3.40023661
        66      3    4   0.000000        2.75955105       4.96518421       3.40023661
        67      3    3   0.000000       -4.20480871       7.39617395       3.34971619
        68      3    4   0.000000       -4.20480871       7.39617395       3.34971619
        69      3    3   0.000000       -5.71724987       9.88183689       3.45255160
        70      3    4   0.000000       -5.71724987       9.88183689       3.45255160
        71      3    3   0.000000        3.01989651       0.07663624       3.36438775
        72      3    4   0.000000        3.01989651       0.07663624       3.36438775
        73      3    3   0.000000        1.57115889       2.49400163       3.33516383
        74      3    4   0.000000        1.57115889       2.49400163       3.33516383
        75      3    3   0.000000       -0.09754600       4.81672525       3.40233707
        76      3    4   0.000000       -0.09754600       4.81672525       3.40233707
        77      3    3   0.000000       -1.54201341       7.38702154       3.35433674
        78      3    4   0.000000       -1.54201341       7.38702154       3.35433674
        79      3    3   0.000000       -2.87842703       9.74368286       3.26353383
        80      3    4   0.000000       -2.87842703       9.74368286       3.26353383
        81      3    3   0.000000        1.30977631       0.99514812       7.99389505
        82      3    4   0.000000        1.30977631       0.99514812       7.99389505
        83      3    3   0.000000        0.15745111       3.41438198       7.99666262
        84      3    4   0.000000        0.15745111       3.41438198       7.99666262
        85      3    3   0.000000       -1.52186108       5.82074976       8.02805710
        86      3    4   0.000000       -1.52186108       5.82074976       8.02805710
        87      3    3   0.000000       -2.86050677       8.34875107       8.12088013
        88      3    4   0.000000       -2.86050677       8.34875107       8.12088013
        89      3    3   0.000000       -4.15890312      10.71967983       7.98972750
        90      3    4   0.000000       -4.15890312      10.71967983       7.98972750
        91      3    3   0.000000        4.25363874       0.93316078       7.90916491
        92      3    4   0.000000        4.25363874       0.93316078       7.90916491
        93      3    3   0.000000        3.01958036       3.39181972       8.01672268
        94      3    4   0.000000        3.01958036       3.39181972       8.01672268
        95      3    3   0.000000        1.33345258       5.82171488       7.99978066
        96      3    4   0.000000        1.33345258       5.82171488       7.99978066
        97      3    3   0.000000       -0.01749600       8.07949066       7.96042395
        98      3    4   0.000000       -0.01749600       8.07949066       7.96042395
        99      3    3   0.000000       -1.48062694      10.68918323       7.98048639
       100      3    4   0.000000       -1.48062694      10.68918323       7.98048639
       101      3    3   0.000000       -0.01463932       1.78534353      12.55386448
       102      3    4   0.000000       -0.01463932       1.78534353      12.55386448
       103      3    3   0.000000       -1.23557091       4.25693083      12.64212132
       104      3    4   0.000000       -1.23557091       4.25693083      12.64212132
       105      3    3   0.000000       -2.89970565       6.71091175      12.64038181
       106      3    4   0.000000       -2.89970565       6.71091175      12.64038181
       107      3    3   0.000000       -4.24653244       8.98838425      12.59648800
       108      3    4   0.000000       -4.24653244       8.98838425      12.59648800
       109      3    3   0.000000       -5.74867344      11.59833527      12.61110210
       110      3    4   0.000000       -5.74867344      11.59833527      12.61110210
       111      3    3   0.000000        2.85904908       1.91763413      12.71461487
       112      3    4   0.000000        2.85904908       1.91763413      12.71461487
       113      3    3   0.000000        1.60767806       4.26082420      12.66234112
       114      3    4   0.000000        1.60767806       4.26082420      12.66234112
       115      3    3   0.000000        0.04188489       6.53273201      12.66099644
       116      3    4   0.000000        0.04188489       6.53273201      12.66099644
       117      3    3   0.000000       -1.25949180       9.15730095      12.65015984
       118      3    4   0.000000       -1.25949180       9.15730095      12.65015984
       119      3    3   0.000000       -2.72388959      11.55370522      12.61999416
       120      3    4   0.000000       -2.72388959      11.55370522      12.61999416
       121      3    3   0.000000       -1.42844927      12.20747471      10.43136025
       122      3    4   0.000000       -1.42844927      12.20747471      10.43136025
       123      3    3   0.000000        4.18700886       2.58486009      10.55277824
       124      3    4   0.000000        4.18700886       2.58486009      10.55277824
       125      3    3   0.000000       -2.76701093       5.05467224      10.62535858
       126      3    4   0.000000       -2.76701093       5.05467224      10.62535858
       127      3    3   0.000000        1.33939362       7.39908743      10.55301952
       128      3    4   0.000000        1.33939362       7.39908743      10.55301952
       129      3    3   0.000000       -0.04587177       9.94115925      10.44276237
       130      3    4   0.000000       -0.04587177       9.94115925      10.44276237
       131      3    3   0.000000        2.85485220       0.32091725      10.57649517
       132      3    4   0.000000        2.85485220       0.32091725      10.57649517
       133      3    3   0.000000        1.35135841       2.56398296      10.54859924
       134      3    4   0.000000        1.35135841       2.56398296      10.54859924
       135      3    3   0.000000        0.16023748       4.95295286      10.55923462
       136      3    4   0.000000        0.16023748       4.95295286      10.55923462
       137      3    3   0.000000       -1.39491105       7.43218517      10.65588188
       138      3    4   0.000000       -1.39491105       7.43218517      10.65588188
       139      3    3   0.000000       -2.72121143       9.81395340      10.57130528
       140      3    4   0.000000       -2.72121143       9.81395340      10.57130528
       141      3    3   0.000000        1.53366721       0.82262033       1.31229138
       142      3    4   0.000000        1.53366721       0.82262033       1.31229138
       143      3    3   0.000000        0.17760161       3.22365284       1.26726520
       144      3    4   0.000000        0.17760161       3.22365284       1.26726520
       145      3    3   0.000000       -1.52455246       5.64990807       1.28127086
       146      3    4   0.000000       -1.52455246       5.64990807       1.28127086
       147      3    3   0.000000       -2.87082338       7.99251270       1.15829253
       148      3    4   0.000000       -2.87082338       7.99251270       1.15829253
       149      3    3   0.000000       -4.37796974      10.52128410       1.26480997
       150      3    4   0.000000       -4.37796974      10.52128410       1.26480997
       151      3    3   0.000000        4.31675196       0.81380755       1.28239679
       152      3    4   0.000000        4.31675196       0.81380755       1.28239679
       153      3    3   0.000000        3.02375174       3.22599459       1.27599168
       154      3    4   0.000000        3.02375174       3.22599459       1.27599168
       155      3    3   0.000000        1.48882949       5.63447523       1.28292608
       156      3    4   0.000000        1.48882949       5.63447523       1.28292608
       157      3    3   0.000000       -0.03446549       8.25209999       1.32611454
       158      3    4   0.000000       -0.03446549       8.25209999       1.32611454
       159      3    3   0.000000       -1.52427590      10.52609825       1.26750565
       160      3    4   0.000000       -1.52427590      10.52609825       1.26750565
       161      3    3   0.000000       -0.09137641       1.70749605       5.88439274
       162      3    4   0.000000       -0.09137641       1.70749605       5.88439274
       163      3    3   0.000000       -1.27968883       4.09691048       5.92560530
       164      3    4   0.000000       -1.27968883       4.09691048       5.92560530
       165      3    3   0.000000       -2.87357640       6.58703232       6.01487589
       166      3    4   0.000000       -2.87357640       6.58703232       6.01487589
       167      3    3   0.000000       -4.17008781       8.95797920       5.92225123
       168      3    4   0.000000       -4.17008781       8.95797920       5.92225123
       169      3    3   0.000000       -5.66230822      11.55269527       5.93511868
       170      3    4   0.000000       -5.66230822      11.55269527       5.93511868
       171      3    3   0.000000        2.75682521       1.69319093       5.91730976
       172      3    4   0.000000        2.75682521       1.69319093       5.91730976
       173      3    3   0.000000        1.61266065       4.10815716       5.93161869
       174      3    4   0.000000        1.61266065       4.10815716       5.93161869
       175      3    3   0.000000       -0.01769458       6.45293856       5.83267832
       176      3    4   0.000000       -0.01769458       6.45293856       5.83267832
       177      3    3   0.000000       -1.49572253       8.92865467       5.92375278
       178      3    4   0.000000       -1.49572253       8.92865467       5.92375278
       179      3    3   0.000000       -2.72660232      11.35746002       5.85348177
       180      3    4   0.000000       -2.72660232      11.35746002       5.85348177
 
Bonds
 
           1           1          61          62
           2           1          63          64
           3           1          65          66
           4           1          67          68
           5           1          69          70
           6           1          71          72
           7           1          73          74
           8           1          75          76
           9           1          77          78
          10           1          79          80
          11           1          81          82
          12           1          83          84
          13           1          85          86
          14           1          87          88
          15           1          89          90
          16           1          91          92
          17           1          93          94
          18           1          95          96
          19           1          97          98
          20           1          99         100
          21           1         101         102
          22           1         103         104
          23           1         105         106
          24           1         107         108
          25           1         109         110
          26           1         111         112
          27           1         113         114
          28           1         115         116
          29           1         117         118
          30           1         119         120
          31           1         121         122
          32           1         123         124
          33           1         125         126
          34           1         127         128
          35           1         129         130
          36           1         131         132
          37           1         133         134
          38           1         135         136
          39           1         137         138
          40           1         139         140
          41           1         141         142
          42           1         143         144
          43           1         145         146
          44           1         147         148
          45           1         149         150
          46           1         151         152
          47           1         153         154
          48           1         155         156
          49           1         157         158
          50           1         159         160
          51           1         161         162
          52           1         163         164
          53           1         165         166
          54           1         167         168
          55           1         169         170
          56           1         171         172
          57           1         173         174
          58           1         175         176
          59           1         177         178
          60           1         179         180
