 # CONFIG generated by ASE
 
        3840  atoms
           3  atom types
 
      0.00000000      45.61027527  xlo xhi
      0.00000000      24.28217449  ylo yhi
      0.00000000      27.82222903  zlo zhi
 
Masses
 
            1   6.94000000              # Li
            2   58.69340000             # Ni
            3   15.99900000             # O
 
Atoms # atomic
 
         1    1       -1.39265895      12.35352135      13.90068626
         2    1       -1.39265895      12.35352135      27.81180078
         3    1       -1.39265895      24.49460859      13.90068626
         4    1       -1.39265895      24.49460859      27.81180078
         5    1        4.30862546      12.35352135      13.90068626
         6    1        4.30862546      12.35352135      27.81180078
         7    1        4.30862546      24.49460859      13.90068626
         8    1        4.30862546      24.49460859      27.81180078
         9    1       10.00990987      12.35352135      13.90068626
        10    1       10.00990987      12.35352135      27.81180078
        11    1       10.00990987      24.49460859      13.90068626
        12    1       10.00990987      24.49460859      27.81180078
        13    1       15.71119428      12.35352135      13.90068626
        14    1       15.71119428      12.35352135      27.81180078
        15    1       15.71119428      24.49460859      13.90068626
        16    1       15.71119428      24.49460859      27.81180078
        17    1       21.41247868      12.35352135      13.90068626
        18    1       21.41247868      12.35352135      27.81180078
        19    1       21.41247868      24.49460859      13.90068626
        20    1       21.41247868      24.49460859      27.81180078
        21    1       27.11376309      12.35352135      13.90068626
        22    1       27.11376309      12.35352135      27.81180078
        23    1       27.11376309      24.49460859      13.90068626
        24    1       27.11376309      24.49460859      27.81180078
        25    1       32.81504750      12.35352135      13.90068626
        26    1       32.81504750      12.35352135      27.81180078
        27    1       32.81504750      24.49460859      13.90068626
        28    1       32.81504750      24.49460859      27.81180078
        29    1       38.51633191      12.35352135      13.90068626
        30    1       38.51633191      12.35352135      27.81180078
        31    1       38.51633191      24.49460859      13.90068626
        32    1       38.51633191      24.49460859      27.81180078
        33    1        4.31525183       2.63956141      13.90276432
        34    1        4.31525183       2.63956141      27.81387884
        35    1        4.31525183      14.78064866      13.90276432
        36    1        4.31525183      14.78064866      27.81387884
        37    1       10.01653624       2.63956141      13.90276432
        38    1       10.01653624       2.63956141      27.81387884
        39    1       10.01653624      14.78064866      13.90276432
        40    1       10.01653624      14.78064866      27.81387884
        41    1       15.71782065       2.63956141      13.90276432
        42    1       15.71782065       2.63956141      27.81387884
        43    1       15.71782065      14.78064866      13.90276432
        44    1       15.71782065      14.78064866      27.81387884
        45    1       21.41910505       2.63956141      13.90276432
        46    1       21.41910505       2.63956141      27.81387884
        47    1       21.41910505      14.78064866      13.90276432
        48    1       21.41910505      14.78064866      27.81387884
        49    1       27.12038946       2.63956141      13.90276432
        50    1       27.12038946       2.63956141      27.81387884
        51    1       27.12038946      14.78064866      13.90276432
        52    1       27.12038946      14.78064866      27.81387884
        53    1       32.82167387       2.63956141      13.90276432
        54    1       32.82167387       2.63956141      27.81387884
        55    1       32.82167387      14.78064866      13.90276432
        56    1       32.82167387      14.78064866      27.81387884
        57    1       38.52295828       2.63956141      13.90276432
        58    1       38.52295828       2.63956141      27.81387884
        59    1       38.52295828      14.78064866      13.90276432
        60    1       38.52295828      14.78064866      27.81387884
        61    1       44.22424269       2.63956141      13.90276432
        62    1       44.22424269       2.63956141      27.81387884
        63    1       44.22424269      14.78064866      13.90276432
        64    1       44.22424269      14.78064866      27.81387884
        65    1       -2.82443118       4.82894039       0.02084278
        66    1       -2.82443118       4.82894039      13.93195730
        67    1       -2.82443118      16.97002764       0.02084278
        68    1       -2.82443118      16.97002764      13.93195730
        69    1        2.87685323       4.82894039       0.02084278
        70    1        2.87685323       4.82894039      13.93195730
        71    1        2.87685323      16.97002764       0.02084278
        72    1        2.87685323      16.97002764      13.93195730
        73    1        8.57813763       4.82894039       0.02084278
        74    1        8.57813763       4.82894039      13.93195730
        75    1        8.57813763      16.97002764       0.02084278
        76    1        8.57813763      16.97002764      13.93195730
        77    1       14.27942204       4.82894039       0.02084278
        78    1       14.27942204       4.82894039      13.93195730
        79    1       14.27942204      16.97002764       0.02084278
        80    1       14.27942204      16.97002764      13.93195730
        81    1       19.98070645       4.82894039       0.02084278
        82    1       19.98070645       4.82894039      13.93195730
        83    1       19.98070645      16.97002764       0.02084278
        84    1       19.98070645      16.97002764      13.93195730
        85    1       25.68199086       4.82894039       0.02084278
        86    1       25.68199086       4.82894039      13.93195730
        87    1       25.68199086      16.97002764       0.02084278
        88    1       25.68199086      16.97002764      13.93195730
        89    1       31.38327527       4.82894039       0.02084278
        90    1       31.38327527       4.82894039      13.93195730
        91    1       31.38327527      16.97002764       0.02084278
        92    1       31.38327527      16.97002764      13.93195730
        93    1       37.08455968       4.82894039       0.02084278
        94    1       37.08455968       4.82894039      13.93195730
        95    1       37.08455968      16.97002764       0.02084278
        96    1       37.08455968      16.97002764      13.93195730
        97    1        1.46435058       7.47287464      13.87890625
        98    1        1.46435058       7.47287464      27.79002077
        99    1        1.46435058      19.61396188      13.87890625
       100    1        1.46435058      19.61396188      27.79002077
       101    1        7.16563499       7.47287464      13.87890625
       102    1        7.16563499       7.47287464      27.79002077
       103    1        7.16563499      19.61396188      13.87890625
       104    1        7.16563499      19.61396188      27.79002077
       105    1       12.86691940       7.47287464      13.87890625
       106    1       12.86691940       7.47287464      27.79002077
       107    1       12.86691940      19.61396188      13.87890625
       108    1       12.86691940      19.61396188      27.79002077
       109    1       18.56820381       7.47287464      13.87890625
       110    1       18.56820381       7.47287464      27.79002077
       111    1       18.56820381      19.61396188      13.87890625
       112    1       18.56820381      19.61396188      27.79002077
       113    1       24.26948822       7.47287464      13.87890625
       114    1       24.26948822       7.47287464      27.79002077
       115    1       24.26948822      19.61396188      13.87890625
       116    1       24.26948822      19.61396188      27.79002077
       117    1       29.97077262       7.47287464      13.87890625
       118    1       29.97077262       7.47287464      27.79002077
       119    1       29.97077262      19.61396188      13.87890625
       120    1       29.97077262      19.61396188      27.79002077
       121    1       35.67205703       7.47287464      13.87890625
       122    1       35.67205703       7.47287464      27.79002077
       123    1       35.67205703      19.61396188      13.87890625
       124    1       35.67205703      19.61396188      27.79002077
       125    1       41.37334144       7.47287464      13.87890625
       126    1       41.37334144       7.47287464      27.79002077
       127    1       41.37334144      19.61396188      13.87890625
       128    1       41.37334144      19.61396188      27.79002077
       129    1       -0.00153887       9.72288322       0.01517861
       130    1       -0.00153887       9.72288322      13.92629313
       131    1       -0.00153887      21.86397047       0.01517861
       132    1       -0.00153887      21.86397047      13.92629313
       133    1        5.69974554       9.72288322       0.01517861
       134    1        5.69974554       9.72288322      13.92629313
       135    1        5.69974554      21.86397047       0.01517861
       136    1        5.69974554      21.86397047      13.92629313
       137    1       11.40102995       9.72288322       0.01517861
       138    1       11.40102995       9.72288322      13.92629313
       139    1       11.40102995      21.86397047       0.01517861
       140    1       11.40102995      21.86397047      13.92629313
       141    1       17.10231436       9.72288322       0.01517861
       142    1       17.10231436       9.72288322      13.92629313
       143    1       17.10231436      21.86397047       0.01517861
       144    1       17.10231436      21.86397047      13.92629313
       145    1       22.80359877       9.72288322       0.01517861
       146    1       22.80359877       9.72288322      13.92629313
       147    1       22.80359877      21.86397047       0.01517861
       148    1       22.80359877      21.86397047      13.92629313
       149    1       28.50488318       9.72288322       0.01517861
       150    1       28.50488318       9.72288322      13.92629313
       151    1       28.50488318      21.86397047       0.01517861
       152    1       28.50488318      21.86397047      13.92629313
       153    1       34.20616758       9.72288322       0.01517861
       154    1       34.20616758       9.72288322      13.92629313
       155    1       34.20616758      21.86397047       0.01517861
       156    1       34.20616758      21.86397047      13.92629313
       157    1       39.90745199       9.72288322       0.01517861
       158    1       39.90745199       9.72288322      13.92629313
       159    1       39.90745199      21.86397047       0.01517861
       160    1       39.90745199      21.86397047      13.92629313
       161    1        2.88956952       0.25985602      13.89025116
       162    1        2.88956952       0.25985602      27.80136568
       163    1        2.88956952      12.40094326      13.89025116
       164    1        2.88956952      12.40094326      27.80136568
       165    1        8.59085393       0.25985602      13.89025116
       166    1        8.59085393       0.25985602      27.80136568
       167    1        8.59085393      12.40094326      13.89025116
       168    1        8.59085393      12.40094326      27.80136568
       169    1       14.29213834       0.25985602      13.89025116
       170    1       14.29213834       0.25985602      27.80136568
       171    1       14.29213834      12.40094326      13.89025116
       172    1       14.29213834      12.40094326      27.80136568
       173    1       19.99342275       0.25985602      13.89025116
       174    1       19.99342275       0.25985602      27.80136568
       175    1       19.99342275      12.40094326      13.89025116
       176    1       19.99342275      12.40094326      27.80136568
       177    1       25.69470715       0.25985602      13.89025116
       178    1       25.69470715       0.25985602      27.80136568
       179    1       25.69470715      12.40094326      13.89025116
       180    1       25.69470715      12.40094326      27.80136568
       181    1       31.39599156       0.25985602      13.89025116
       182    1       31.39599156       0.25985602      27.80136568
       183    1       31.39599156      12.40094326      13.89025116
       184    1       31.39599156      12.40094326      27.80136568
       185    1       37.09727597       0.25985602      13.89025116
       186    1       37.09727597       0.25985602      27.80136568
       187    1       37.09727597      12.40094326      13.89025116
       188    1       37.09727597      12.40094326      27.80136568
       189    1       42.79856038       0.25985602      13.89025116
       190    1       42.79856038       0.25985602      27.80136568
       191    1       42.79856038      12.40094326      13.89025116
       192    1       42.79856038      12.40094326      27.80136568
       193    1        1.53760707       2.46891737       0.02633987
       194    1        1.53760707       2.46891737      13.93745439
       195    1        1.53760707      14.61000461       0.02633987
       196    1        1.53760707      14.61000461      13.93745439
       197    1        7.23889148       2.46891737       0.02633987
       198    1        7.23889148       2.46891737      13.93745439
       199    1        7.23889148      14.61000461       0.02633987
       200    1        7.23889148      14.61000461      13.93745439
       201    1       12.94017589       2.46891737       0.02633987
       202    1       12.94017589       2.46891737      13.93745439
       203    1       12.94017589      14.61000461       0.02633987
       204    1       12.94017589      14.61000461      13.93745439
       205    1       18.64146030       2.46891737       0.02633987
       206    1       18.64146030       2.46891737      13.93745439
       207    1       18.64146030      14.61000461       0.02633987
       208    1       18.64146030      14.61000461      13.93745439
       209    1       24.34274471       2.46891737       0.02633987
       210    1       24.34274471       2.46891737      13.93745439
       211    1       24.34274471      14.61000461       0.02633987
       212    1       24.34274471      14.61000461      13.93745439
       213    1       30.04402912       2.46891737       0.02633987
       214    1       30.04402912       2.46891737      13.93745439
       215    1       30.04402912      14.61000461       0.02633987
       216    1       30.04402912      14.61000461      13.93745439
       217    1       35.74531352       2.46891737       0.02633987
       218    1       35.74531352       2.46891737      13.93745439
       219    1       35.74531352      14.61000461       0.02633987
       220    1       35.74531352      14.61000461      13.93745439
       221    1       41.44659793       2.46891737       0.02633987
       222    1       41.44659793       2.46891737      13.93745439
       223    1       41.44659793      14.61000461       0.02633987
       224    1       41.44659793      14.61000461      13.93745439
       225    1        0.05915565       4.81177330       0.01262735
       226    1        0.05915565       4.81177330      13.92374187
       227    1        0.05915565      16.95286054       0.01262735
       228    1        0.05915565      16.95286054      13.92374187
       229    1        5.76044006       4.81177330       0.01262735
       230    1        5.76044006       4.81177330      13.92374187
       231    1        5.76044006      16.95286054       0.01262735
       232    1        5.76044006      16.95286054      13.92374187
       233    1       11.46172447       4.81177330       0.01262735
       234    1       11.46172447       4.81177330      13.92374187
       235    1       11.46172447      16.95286054       0.01262735
       236    1       11.46172447      16.95286054      13.92374187
       237    1       17.16300888       4.81177330       0.01262735
       238    1       17.16300888       4.81177330      13.92374187
       239    1       17.16300888      16.95286054       0.01262735
       240    1       17.16300888      16.95286054      13.92374187
       241    1       22.86429329       4.81177330       0.01262735
       242    1       22.86429329       4.81177330      13.92374187
       243    1       22.86429329      16.95286054       0.01262735
       244    1       22.86429329      16.95286054      13.92374187
       245    1       28.56557769       4.81177330       0.01262735
       246    1       28.56557769       4.81177330      13.92374187
       247    1       28.56557769      16.95286054       0.01262735
       248    1       28.56557769      16.95286054      13.92374187
       249    1       34.26686210       4.81177330       0.01262735
       250    1       34.26686210       4.81177330      13.92374187
       251    1       34.26686210      16.95286054       0.01262735
       252    1       34.26686210      16.95286054      13.92374187
       253    1       39.96814651       4.81177330       0.01262735
       254    1       39.96814651       4.81177330      13.92374187
       255    1       39.96814651      16.95286054       0.01262735
       256    1       39.96814651      16.95286054      13.92374187
       257    1       -1.39531827       7.48764515      13.89929295
       258    1       -1.39531827       7.48764515      27.81040746
       259    1       -1.39531827      19.62873239      13.89929295
       260    1       -1.39531827      19.62873239      27.81040746
       261    1        4.30596614       7.48764515      13.89929295
       262    1        4.30596614       7.48764515      27.81040746
       263    1        4.30596614      19.62873239      13.89929295
       264    1        4.30596614      19.62873239      27.81040746
       265    1       10.00725055       7.48764515      13.89929295
       266    1       10.00725055       7.48764515      27.81040746
       267    1       10.00725055      19.62873239      13.89929295
       268    1       10.00725055      19.62873239      27.81040746
       269    1       15.70853495       7.48764515      13.89929295
       270    1       15.70853495       7.48764515      27.81040746
       271    1       15.70853495      19.62873239      13.89929295
       272    1       15.70853495      19.62873239      27.81040746
       273    1       21.40981936       7.48764515      13.89929295
       274    1       21.40981936       7.48764515      27.81040746
       275    1       21.40981936      19.62873239      13.89929295
       276    1       21.40981936      19.62873239      27.81040746
       277    1       27.11110377       7.48764515      13.89929295
       278    1       27.11110377       7.48764515      27.81040746
       279    1       27.11110377      19.62873239      13.89929295
       280    1       27.11110377      19.62873239      27.81040746
       281    1       32.81238818       7.48764515      13.89929295
       282    1       32.81238818       7.48764515      27.81040746
       283    1       32.81238818      19.62873239      13.89929295
       284    1       32.81238818      19.62873239      27.81040746
       285    1       38.51367259       7.48764515      13.89929295
       286    1       38.51367259       7.48764515      27.81040746
       287    1       38.51367259      19.62873239      13.89929295
       288    1       38.51367259      19.62873239      27.81040746
       289    1       -2.85905552       9.69279957       0.00159669
       290    1       -2.85905552       9.69279957      13.91271121
       291    1       -2.85905552      21.83388681       0.00159669
       292    1       -2.85905552      21.83388681      13.91271121
       293    1        2.84222889       9.69279957       0.00159669
       294    1        2.84222889       9.69279957      13.91271121
       295    1        2.84222889      21.83388681       0.00159669
       296    1        2.84222889      21.83388681      13.91271121
       297    1        8.54351330       9.69279957       0.00159669
       298    1        8.54351330       9.69279957      13.91271121
       299    1        8.54351330      21.83388681       0.00159669
       300    1        8.54351330      21.83388681      13.91271121
       301    1       14.24479771       9.69279957       0.00159669
       302    1       14.24479771       9.69279957      13.91271121
       303    1       14.24479771      21.83388681       0.00159669
       304    1       14.24479771      21.83388681      13.91271121
       305    1       19.94608212       9.69279957       0.00159669
       306    1       19.94608212       9.69279957      13.91271121
       307    1       19.94608212      21.83388681       0.00159669
       308    1       19.94608212      21.83388681      13.91271121
       309    1       25.64736653       9.69279957       0.00159669
       310    1       25.64736653       9.69279957      13.91271121
       311    1       25.64736653      21.83388681       0.00159669
       312    1       25.64736653      21.83388681      13.91271121
       313    1       31.34865093       9.69279957       0.00159669
       314    1       31.34865093       9.69279957      13.91271121
       315    1       31.34865093      21.83388681       0.00159669
       316    1       31.34865093      21.83388681      13.91271121
       317    1       37.04993534       9.69279957       0.00159669
       318    1       37.04993534       9.69279957      13.91271121
       319    1       37.04993534      21.83388681       0.00159669
       320    1       37.04993534      21.83388681      13.91271121
       321    1        1.45557964       0.91103876       4.64847565
       322    1        1.45557964       0.91103876      18.55959016
       323    1        1.45557964      13.05212600       4.64847565
       324    1        1.45557964      13.05212600      18.55959016
       325    1        7.15686405       0.91103876       4.64847565
       326    1        7.15686405       0.91103876      18.55959016
       327    1        7.15686405      13.05212600       4.64847565
       328    1        7.15686405      13.05212600      18.55959016
       329    1       12.85814846       0.91103876       4.64847565
       330    1       12.85814846       0.91103876      18.55959016
       331    1       12.85814846      13.05212600       4.64847565
       332    1       12.85814846      13.05212600      18.55959016
       333    1       18.55943286       0.91103876       4.64847565
       334    1       18.55943286       0.91103876      18.55959016
       335    1       18.55943286      13.05212600       4.64847565
       336    1       18.55943286      13.05212600      18.55959016
       337    1       24.26071727       0.91103876       4.64847565
       338    1       24.26071727       0.91103876      18.55959016
       339    1       24.26071727      13.05212600       4.64847565
       340    1       24.26071727      13.05212600      18.55959016
       341    1       29.96200168       0.91103876       4.64847565
       342    1       29.96200168       0.91103876      18.55959016
       343    1       29.96200168      13.05212600       4.64847565
       344    1       29.96200168      13.05212600      18.55959016
       345    1       35.66328609       0.91103876       4.64847565
       346    1       35.66328609       0.91103876      18.55959016
       347    1       35.66328609      13.05212600       4.64847565
       348    1       35.66328609      13.05212600      18.55959016
       349    1       41.36457050       0.91103876       4.64847565
       350    1       41.36457050       0.91103876      18.55959016
       351    1       41.36457050      13.05212600       4.64847565
       352    1       41.36457050      13.05212600      18.55959016
       353    1        0.01295483       3.29216385       4.62365961
       354    1        0.01295483       3.29216385      18.53477413
       355    1        0.01295483      15.43325109       4.62365961
       356    1        0.01295483      15.43325109      18.53477413
       357    1        5.71423924       3.29216385       4.62365961
       358    1        5.71423924       3.29216385      18.53477413
       359    1        5.71423924      15.43325109       4.62365961
       360    1        5.71423924      15.43325109      18.53477413
       361    1       11.41552365       3.29216385       4.62365961
       362    1       11.41552365       3.29216385      18.53477413
       363    1       11.41552365      15.43325109       4.62365961
       364    1       11.41552365      15.43325109      18.53477413
       365    1       17.11680806       3.29216385       4.62365961
       366    1       17.11680806       3.29216385      18.53477413
       367    1       17.11680806      15.43325109       4.62365961
       368    1       17.11680806      15.43325109      18.53477413
       369    1       22.81809247       3.29216385       4.62365961
       370    1       22.81809247       3.29216385      18.53477413
       371    1       22.81809247      15.43325109       4.62365961
       372    1       22.81809247      15.43325109      18.53477413
       373    1       28.51937688       3.29216385       4.62365961
       374    1       28.51937688       3.29216385      18.53477413
       375    1       28.51937688      15.43325109       4.62365961
       376    1       28.51937688      15.43325109      18.53477413
       377    1       34.22066128       3.29216385       4.62365961
       378    1       34.22066128       3.29216385      18.53477413
       379    1       34.22066128      15.43325109       4.62365961
       380    1       34.22066128      15.43325109      18.53477413
       381    1       39.92194569       3.29216385       4.62365961
       382    1       39.92194569       3.29216385      18.53477413
       383    1       39.92194569      15.43325109       4.62365961
       384    1       39.92194569      15.43325109      18.53477413
       385    1       -1.36831164       5.68820810       4.63263416
       386    1       -1.36831164       5.68820810      18.54374868
       387    1       -1.36831164      17.82929535       4.63263416
       388    1       -1.36831164      17.82929535      18.54374868
       389    1        4.33297277       5.68820810       4.63263416
       390    1        4.33297277       5.68820810      18.54374868
       391    1        4.33297277      17.82929535       4.63263416
       392    1        4.33297277      17.82929535      18.54374868
       393    1       10.03425717       5.68820810       4.63263416
       394    1       10.03425717       5.68820810      18.54374868
       395    1       10.03425717      17.82929535       4.63263416
       396    1       10.03425717      17.82929535      18.54374868
       397    1       15.73554158       5.68820810       4.63263416
       398    1       15.73554158       5.68820810      18.54374868
       399    1       15.73554158      17.82929535       4.63263416
       400    1       15.73554158      17.82929535      18.54374868
       401    1       21.43682599       5.68820810       4.63263416
       402    1       21.43682599       5.68820810      18.54374868
       403    1       21.43682599      17.82929535       4.63263416
       404    1       21.43682599      17.82929535      18.54374868
       405    1       27.13811040       5.68820810       4.63263416
       406    1       27.13811040       5.68820810      18.54374868
       407    1       27.13811040      17.82929535       4.63263416
       408    1       27.13811040      17.82929535      18.54374868
       409    1       32.83939481       5.68820810       4.63263416
       410    1       32.83939481       5.68820810      18.54374868
       411    1       32.83939481      17.82929535       4.63263416
       412    1       32.83939481      17.82929535      18.54374868
       413    1       38.54067922       5.68820810       4.63263416
       414    1       38.54067922       5.68820810      18.54374868
       415    1       38.54067922      17.82929535       4.63263416
       416    1       38.54067922      17.82929535      18.54374868
       417    1       -2.85792470       8.16801453       4.64000130
       418    1       -2.85792470       8.16801453      18.55111581
       419    1       -2.85792470      20.30910177       4.64000130
       420    1       -2.85792470      20.30910177      18.55111581
       421    1        2.84335971       8.16801453       4.64000130
       422    1        2.84335971       8.16801453      18.55111581
       423    1        2.84335971      20.30910177       4.64000130
       424    1        2.84335971      20.30910177      18.55111581
       425    1        8.54464412       8.16801453       4.64000130
       426    1        8.54464412       8.16801453      18.55111581
       427    1        8.54464412      20.30910177       4.64000130
       428    1        8.54464412      20.30910177      18.55111581
       429    1       14.24592852       8.16801453       4.64000130
       430    1       14.24592852       8.16801453      18.55111581
       431    1       14.24592852      20.30910177       4.64000130
       432    1       14.24592852      20.30910177      18.55111581
       433    1       19.94721293       8.16801453       4.64000130
       434    1       19.94721293       8.16801453      18.55111581
       435    1       19.94721293      20.30910177       4.64000130