 # CONFIG generated by ASE
 
        5760  atoms
        1920  bonds
           4  atom types
           1  bond types
 
      0.00000000      45.61027527  xlo xhi
      0.00000000      24.28217449  ylo yhi
      0.00000000      27.82222903  zlo zhi
 
Masses
 
            1   6.94000000              # Li core
            2   58.69340000             # Ni core
            3   15.99900000             # O  core
            4   1.59990000              # O  shell
 
Atoms # full
 
         1      1    1   0.000000       -1.39265895      12.35352135      13.90068626
         2      2    1   0.000000       -1.39265895      12.35352135      27.81180078
         3      3    1   0.000000       -1.39265895      24.49460859      13.90068626
         4      4    1   0.000000       -1.39265895      24.49460859      27.81180078
         5      5    1   0.000000        4.30862546      12.35352135      13.90068626
         6      6    1   0.000000        4.30862546      12.35352135      27.81180078
         7      7    1   0.000000        4.30862546      24.49460859      13.90068626
         8      8    1   0.000000        4.30862546      24.49460859      27.81180078
         9      9    1   0.000000       10.00990987      12.35352135      13.90068626
        10     10    1   0.000000       10.00990987      12.35352135      27.81180078
        11     11    1   0.000000       10.00990987      24.49460859      13.90068626
        12     12    1   0.000000       10.00990987      24.49460859      27.81180078
        13     13    1   0.000000       15.71119428      12.35352135      13.90068626
        14     14    1   0.000000       15.71119428      12.35352135      27.81180078
        15     15    1   0.000000       15.71119428      24.49460859      13.90068626
        16     16    1   0.000000       15.71119428      24.49460859      27.81180078
        17     17    1   0.000000       21.41247868      12.35352135      13.90068626
        18     18    1   0.000000       21.41247868      12.35352135      27.81180078
        19     19    1   0.000000       21.41247868      24.49460859      13.90068626
        20     20    1   0.000000       21.41247868      24.49460859      27.81180078
        21     21    1   0.000000       27.11376309      12.35352135      13.90068626
        22     22    1   0.000000       27.11376309      12.35352135      27.81180078
        23     23    1   0.000000       27.11376309      24.49460859      13.90068626
        24     24    1   0.000000       27.11376309      24.49460859      27.81180078
        25     25    1   0.000000       32.81504750      12.35352135      13.90068626
        26     26    1   0.000000       32.81504750      12.35352135      27.81180078
        27     27    1   0.000000       32.81504750      24.49460859      13.90068626
        28     28    1   0.000000       32.81504750      24.49460859      27.81180078
        29     29    1   0.000000       38.51633191      12.35352135      13.90068626
        30     30    1   0.000000       38.51633191      12.35352135      27.81180078
        31     31    1   0.000000       38.51633191      24.49460859      13.90068626
        32     32    1   0.000000       38.51633191      24.49460859      27.81180078
        33     33    1   0.000000        4.31525183       2.63956141      13.90276432
        34     34    1   0.000000        4.31525183       2.63956141      27.81387884
        35     35    1   0.000000        4.31525183      14.78064866      13.90276432
        36     36    1   0.000000        4.31525183      14.78064866      27.81387884
        37     37    1   0.000000       10.01653624       2.63956141      13.90276432
        38     38    1   0.000000       10.01653624       2.63956141      27.81387884
        39     39    1   0.000000       10.01653624      14.78064866      13.90276432
        40     40    1   0.000000       10.01653624      14.78064866      27.81387884
        41     41    1   0.000000       15.71782065       2.63956141      13.90276432
        42     42    1   0.000000       15.71782065       2.63956141      27.81387884
        43     43    1   0.000000       15.71782065      14.78064866      13.90276432
        44     44    1   0.000000       15.71782065      14.78064866      27.81387884
        45     45    1   0.000000       21.41910505       2.63956141      13.90276432
        46     46    1   0.000000       21.41910505       2.63956141      27.81387884
        47     47    1   0.000000       21.41910505      14.78064866      13.90276432
        48     48    1   0.000000       21.41910505      14.78064866      27.81387884
        49     49    1   0.000000       27.12038946       2.63956141      13.90276432
        50     50    1   0.000000       27.12038946       2.63956141      27.81387884
        51     51    1   0.000000       27.12038946      14.78064866      13.90276432
        52     52    1   0.000000       27.12038946      14.78064866      27.81387884
        53     53    1   0.000000       32.82167387       2.63956141      13.90276432
        54     54    1   0.000000       32.82167387       2.63956141      27.81387884
        55     55    1   0.000000       32.82167387      14.78064866      13.90276432
        56     56    1   0.000000       32.82167387      14.78064866      27.81387884
        57     57    1   0.000000       38.52295828       2.63956141      13.90276432
        58     58    1   0.000000       38.52295828       2.63956141      27.81387884
        59     59    1   0.000000       38.52295828      14.78064866      13.90276432
        60     60    1   0.000000       38.52295828      14.78064866      27.81387884
        61     61    1   0.000000       44.22424269       2.63956141      13.90276432
        62     62    1   0.000000       44.22424269       2.63956141      27.81387884
        63     63    1   0.000000       44.22424269      14.78064866      13.90276432
        64     64    1   0.000000       44.22424269      14.78064866      27.81387884
        65     65    1   0.000000       -2.82443118       4.82894039       0.02084278
        66     66    1   0.000000       -2.82443118       4.82894039      13.93195730
        67     67    1   0.000000       -2.82443118      16.97002764       0.02084278
        68     68    1   0.000000       -2.82443118      16.97002764      13.93195730
        69     69    1   0.000000        2.87685323       4.82894039       0.02084278
        70     70    1   0.000000        2.87685323       4.82894039      13.93195730
        71     71    1   0.000000        2.87685323      16.97002764       0.02084278
        72     72    1   0.000000        2.87685323      16.97002764      13.93195730
        73     73    1   0.000000        8.57813763       4.82894039       0.02084278
        74     74    1   0.000000        8.57813763       4.82894039      13.93195730
        75     75    1   0.000000        8.57813763      16.97002764       0.02084278
        76     76    1   0.000000        8.57813763      16.97002764      13.93195730
        77     77    1   0.000000       14.27942204       4.82894039       0.02084278
        78     78    1   0.000000       14.27942204       4.82894039      13.93195730
        79     79    1   0.000000       14.27942204      16.97002764       0.02084278
        80     80    1   0.000000       14.27942204      16.97002764      13.93195730
        81     81    1   0.000000       19.98070645       4.82894039       0.02084278
        82     82    1   0.000000       19.98070645       4.82894039      13.93195730
        83     83    1   0.000000       19.98070645      16.97002764       0.02084278
        84     84    1   0.000000       19.98070645      16.97002764      13.93195730
        85     85    1   0.000000       25.68199086       4.82894039       0.02084278
        86     86    1   0.000000       25.68199086       4.82894039      13.93195730
        87     87    1   0.000000       25.68199086      16.97002764       0.02084278
        88     88    1   0.000000       25.68199086      16.97002764      13.93195730
        89     89    1   0.000000       31.38327527       4.82894039       0.02084278
        90     90    1   0.000000       31.38327527       4.82894039      13.93195730
        91     91    1   0.000000       31.38327527      16.97002764       0.02084278
        92     92    1   0.000000       31.38327527      16.97002764      13.93195730
        93     93    1   0.000000       37.08455968       4.82894039       0.02084278
        94     94    1   0.000000       37.08455968       4.82894039      13.93195730
        95     95    1   0.000000       37.08455968      16.97002764       0.02084278
        96     96    1   0.000000       37.08455968      16.97002764      13.93195730
        97     97    1   0.000000        1.46435058       7.47287464      13.87890625
        98     98    1   0.000000        1.46435058       7.47287464      27.79002077
        99     99    1   0.000000        1.46435058      19.61396188      13.87890625
       100    100    1   0.000000        1.46435058      19.61396188      27.79002077
       101    101    1   0.000000        7.16563499       7.47287464      13.87890625
       102    102    1   0.000000        7.16563499       7.47287464      27.79002077
       103    103    1   0.000000        7.16563499      19.61396188      13.87890625
       104    104    1   0.000000        7.16563499      19.61396188      27.79002077
       105    105    1   0.000000       12.86691940       7.47287464      13.87890625
       106    106    1   0.000000       12.86691940       7.47287464      27.79002077
       107    107    1   0.000000       12.86691940      19.61396188      13.87890625
       108    108    1   0.000000       12.86691940      19.61396188      27.79002077
       109    109    1   0.000000       18.56820381       7.47287464      13.87890625
       110    110    1   0.000000       18.56820381       7.47287464      27.79002077
       111    111    1   0.000000       18.56820381      19.61396188      13.87890625
       112    112    1   0.000000       18.56820381      19.61396188      27.79002077
       113    113    1   0.000000       24.26948822       7.47287464      13.87890625
       114    114    1   0.000000       24.26948822       7.47287464      27.79002077
       115    115    1   0.000000       24.26948822      19.61396188      13.87890625
       116    116    1   0.000000       24.26948822      19.61396188      27.79002077
       117    117    1   0.000000       29.97077262       7.47287464      13.87890625
       118    118    1   0.000000       29.97077262       7.47287464      27.79002077
       119    119    1   0.000000       29.97077262      19.61396188      13.87890625
       120    120    1   0.000000       29.97077262      19.61396188      27.79002077
       121    121    1   0.000000       35.67205703       7.47287464      13.87890625
       122    122    1   0.000000       35.67205703       7.47287464      27.79002077
       123    123    1   0.000000       35.67205703      19.61396188      13.87890625
       124    124    1   0.000000       35.67205703      19.61396188      27.79002077
       125    125    1   0.000000       41.37334144       7.47287464      13.87890625
       126    126    1   0.000000       41.37334144       7.47287464      27.79002077
       127    127    1   0.000000       41.37334144      19.61396188      13.87890625
       128    128    1   0.000000       41.37334144      19.61396188      27.79002077
       129    129    1   0.000000       -0.00153887       9.72288322       0.01517861
       130    130    1   0.000000       -0.00153887       9.72288322      13.92629313
       131    131    1   0.000000       -0.00153887      21.86397047       0.01517861
       132    132    1   0.000000       -0.00153887      21.86397047      13.92629313
       133    133    1   0.000000        5.69974554       9.72288322       0.01517861
       134    134    1   0.000000        5.69974554       9.72288322      13.92629313
       135    135    1   0.000000        5.69974554      21.86397047       0.01517861
       136    136    1   0.000000        5.69974554      21.86397047      13.92629313
       137    137    1   0.000000       11.40102995       9.72288322       0.01517861
       138    138    1   0.000000       11.40102995       9.72288322      13.92629313
       139    139    1   0.000000       11.40102995      21.86397047       0.01517861
       140    140    1   0.000000       11.40102995      21.86397047      13.92629313
       141    141    1   0.000000       17.10231436       9.72288322       0.01517861
       142    142    1   0.000000       17.10231436       9.72288322      13.92629313
       143    143    1   0.000000       17.10231436      21.86397047       0.01517861
       144    144    1   0.000000       17.10231436      21.86397047      13.92629313
       145    145    1   0.000000       22.80359877       9.72288322       0.01517861
       146    146    1   0.000000       22.80359877       9.72288322      13.92629313
       147    147    1   0.000000       22.80359877      21.86397047       0.01517861
       148    148    1   0.000000       22.80359877      21.86397047      13.92629313
       149    149    1   0.000000       28.50488318       9.72288322       0.01517861
       150    150    1   0.000000       28.50488318       9.72288322      13.92629313
       151    151    1   0.000000       28.50488318      21.86397047       0.01517861
       152    152    1   0.000000       28.50488318      21.86397047      13.92629313
       153    153    1   0.000000       34.20616758       9.72288322       0.01517861
       154    154    1   0.000000       34.20616758       9.72288322      13.92629313
       155    155    1   0.000000       34.20616758      21.86397047       0.01517861
       156    156    1   0.000000       34.20616758      21.86397047      13.92629313
       157    157    1   0.000000       39.90745199       9.72288322       0.01517861
       158    158    1   0.000000       39.90745199       9.72288322      13.92629313
       159    159    1   0.000000       39.90745199      21.86397047       0.01517861
       160    160    1   0.000000       39.90745199      21.86397047      13.92629313
       161    161    1   0.000000        2.88956952       0.25985602      13.89025116
       162    162    1   0.000000        2.88956952       0.25985602      27.80136568
       163    163    1   0.000000        2.88956952      12.40094326      13.89025116
       164    164    1   0.000000        2.88956952      12.40094326      27.80136568
       165    165    1   0.000000        8.59085393       0.25985602      13.89025116
       166    166    1   0.000000        8.59085393       0.25985602      27.80136568
       167    167    1   0.000000        8.59085393      12.40094326      13.89025116
       168    168    1   0.000000        8.59085393      12.40094326      27.80136568
       169    169    1   0.000000       14.29213834       0.25985602      13.89025116
       170    170    1   0.000000       14.29213834       0.25985602      27.80136568
       171    171    1   0.000000       14.29213834      12.40094326      13.89025116
       172    172    1   0.000000       14.29213834      12.40094326      27.80136568
       173    173    1   0.000000       19.99342275       0.25985602      13.89025116
       174    174    1   0.000000       19.99342275       0.25985602      27.80136568
       175    175    1   0.000000       19.99342275      12.40094326      13.89025116
       176    176    1   0.000000       19.99342275      12.40094326      27.80136568
       177    177    1   0.000000       25.69470715       0.25985602      13.89025116
       178    178    1   0.000000       25.69470715       0.25985602      27.80136568
       179    179    1   0.000000       25.69470715      12.40094326      13.89025116
       180    180    1   0.000000       25.69470715      12.40094326      27.80136568
       181    181    1   0.000000       31.39599156       0.25985602      13.89025116
       182    182    1   0.000000       31.39599156       0.25985602      27.80136568
       183    183    1   0.000000       31.39599156      12.40094326      13.89025116
       184    184    1   0.000000       31.39599156      12.40094326      27.80136568
       185    185    1   0.000000       37.09727597       0.25985602      13.89025116
       186    186    1   0.000000       37.09727597       0.25985602      27.80136568
       187    187    1   0.000000       37.09727597      12.40094326      13.89025116
       188    188    1   0.000000       37.09727597      12.40094326      27.80136568
       189    189    1   0.000000       42.79856038       0.25985602      13.89025116
       190    190    1   0.000000       42.79856038       0.25985602      27.80136568
       191    191    1   0.000000       42.79856038      12.40094326      13.89025116
       192    192    1   0.000000       42.79856038      12.40094326      27.80136568
       193    193    1   0.000000        1.53760707       2.46891737       0.02633987
       194    194    1   0.000000        1.53760707       2.46891737      13.93745439
       195    195    1   0.000000        1.53760707      14.61000461       0.02633987
       196    196    1   0.000000        1.53760707      14.61000461      13.93745439
       197    197    1   0.000000        7.23889148       2.46891737       0.02633987
       198    198    1   0.000000        7.23889148       2.46891737      13.93745439
       199    199    1   0.000000        7.23889148      14.61000461       0.02633987
       200    200    1   0.000000        7.23889148      14.61000461      13.93745439
       201    201    1   0.000000       12.94017589       2.46891737       0.02633987
       202    202    1   0.000000       12.94017589       2.46891737      13.93745439
       203    203    1   0.000000       12.94017589      14.61000461       0.02633987
       204    204    1   0.000000       12.94017589      14.61000461      13.93745439
       205    205    1   0.000000       18.64146030       2.46891737       0.02633987
       206    206    1   0.000000       18.64146030       2.46891737      13.93745439
       207    207    1   0.000000       18.64146030      14.61000461       0.02633987
       208    208    1   0.000000       18.64146030      14.61000461      13.93745439
       209    209    1   0.000000       24.34274471       2.46891737       0.02633987
       210    210    1   0.000000       24.34274471       2.46891737      13.93745439
       211    211    1   0.000000       24.34274471      14.61000461       0.02633987
       212    212    1   0.000000       24.34274471      14.61000461      13.93745439
       213    213    1   0.000000       30.04402912       2.46891737       0.02633987
       214    214    1   0.000000       30.04402912       2.46891737      13.93745439
       215    215    1   0.000000       30.04402912      14.61000461       0.02633987
       216    216    1   0.000000       30.04402912      14.61000461      13.93745439
       217    217    1   0.000000       35.74531352       2.46891737       0.02633987
       218    218    1   0.000000       35.74531352       2.46891737      13.93745439
       219    219    1   0.000000       35.74531352      14.61000461       0.02633987
       220    220    1   0.000000       35.74531352      14.61000461      13.93745439
       221    221    1   0.000000       41.44659793       2.46891737       0.02633987
       222    222    1   0.000000       41.44659793       2.46891737      13.93745439
       223    223    1   0.000000       41.44659793      14.61000461       0.02633987
       224    224    1   0.000000       41.44659793      14.61000461      13.93745439
       225    225    1   0.000000        0.05915565       4.81177330       0.01262735
       226    226    1   0.000000        0.05915565       4.81177330      13.92374187
       227    227    1   0.000000        0.05915565      16.95286054       0.01262735
       228    228    1   0.000000        0.05915565      16.95286054      13.92374187
       229    229    1   0.000000        5.76044006       4.81177330       0.01262735
       230    230    1   0.000000        5.76044006       4.81177330      13.92374187
       231    231    1   0.000000        5.76044006      16.95286054       0.01262735
       232    232    1   0.000000        5.76044006      16.95286054      13.92374187
       233    233    1   0.000000       11.46172447       4.81177330       0.01262735
       234    234    1   0.000000       11.46172447       4.81177330      13.92374187
       235    235    1   0.000000       11.46172447      16.95286054       0.01262735
       236    236    1   0.000000       11.46172447      16.95286054      13.92374187
       237    237    1   0.000000       17.16300888       4.81177330       0.01262735
       238    238    1   0.000000       17.16300888       4.81177330      13.92374187
       239    239    1   0.000000       17.16300888      16.95286054       0.01262735
       240    240    1   0.000000       17.16300888      16.95286054      13.92374187
       241    241    1   0.000000       22.86429329       4.81177330       0.01262735
       242    242    1   0.000000       22.86429329       4.81177330      13.92374187
       243    243    1   0.000000       22.86429329      16.95286054       0.01262735
       244    244    1   0.000000       22.86429329      16.95286054      13.92374187
       245    245    1   0.000000       28.56557769       4.81177330       0.01262735
       246    246    1   0.000000       28.56557769       4.81177330      13.92374187
       247    247    1   0.000000       28.56557769      16.95286054       0.01262735
       248    248    1   0.000000       28.56557769      16.95286054      13.92374187
       249    249    1   0.000000       34.26686210       4.81177330       0.01262735
       250    250    1   0.000000       34.26686210       4.81177330      13.92374187
       251    251    1   0.000000       34.26686210      16.95286054       0.01262735
       252    252    1   0.000000       34.26686210      16.95286054      13.92374187
       253    253    1   0.000000       39.96814651       4.81177330       0.01262735
       254    254    1   0.000000       39.96814651       4.81177330      13.92374187
       255    255    1   0.000000       39.96814651      16.95286054       0.01262735
       256    256    1   0.000000       39.96814651      16.95286054      13.92374187
       257    257    1   0.000000       -1.39531827       7.48764515      13.89929295
       258    258    1   0.000000       -1.39531827       7.48764515      27.81040746
       259    259    1   0.000000       -1.39531827      19.62873239      13.89929295
       260    260    1   0.000000       -1.39531827      19.62873239      27.81040746
       261    261    1   0.000000        4.30596614       7.48764515      13.89929295
       262    262    1   0.000000        4.30596614       7.48764515      27.81040746
       263    263    1   0.000000        4.30596614      19.62873239      13.89929295
       264    264    1   0.000000        4.30596614      19.62873239      27.81040746
       265    265    1   0.000000       10.00725055       7.48764515      13.89929295
       266    266    1   0.000000       10.00725055       7.48764515      27.81040746
       267    267    1   0.000000       10.00725055      19.62873239      13.89929295
       268    268    1   0.000000       10.00725055      19.62873239      27.81040746
       269    269    1   0.000000       15.70853495       7.48764515      13.89929295
       270    270    1   0.000000       15.70853495       7.48764515      27.81040746
       271    271    1   0.000000       15.70853495      19.62873239      13.89929295
       272    272    1   0.000000       15.70853495      19.62873239      27.81040746
       273    273    1   0.000000       21.40981936       7.48764515      13.89929295
       274    274    1   0.000000       21.40981936       7.48764515      27.81040746
       275    275    1   0.000000       21.40981936      19.62873239      13.89929295
       276    276    1   0.000000       21.40981936      19.62873239      27.81040746
       277    277    1   0.000000       27.11110377       7.48764515      13.89929295
       278    278    1   0.000000       27.11110377       7.48764515      27.81040746
       279    279    1   0.000000       27.11110377      19.62873239      13.89929295
       280    280    1   0.000000       27.11110377      19.62873239      27.81040746
       281    281    1   0.000000       32.81238818       7.48764515      13.89929295
       282    282    1   0.000000       32.81238818       7.48764515      27.81040746
       283    283    1   0.000000       32.81238818      19.62873239      13.89929295
       284    284    1   0.000000       32.81238818      19.62873239      27.81040746
       285    285    1   0.000000       38.51367259       7.48764515      13.89929295
       286    286    1   0.000000       38.51367259       7.48764515      27.81040746
       287    287    1   0.000000       38.51367259      19.62873239      13.89929295
       288    288    1   0.000000       38.51367259      19.62873239      27.81040746
       289    289    1   0.000000       -2.85905552       9.69279957       0.00159669
       290    290    1   0.000000       -2.85905552       9.69279957      13.91271121
       291    291    1   0.000000       -2.85905552      21.83388681       0.00159669
       292    292    1   0.000000       -2.85905552      21.83388681      13.91271121
       293    293    1   0.000000        2.84222889       9.69279957       0.00159669
       294    294    1   0.000000        2.84222889       9.69279957      13.91271121
       295    295    1   0.000000        2.84222889      21.83388681       0.00159669
       296    296    1   0.000000        2.84222889      21.83388681      13.91271121
       297    297    1   0.000000        8.54351330       9.69279957       0.00159669
       298    298    1   0.000000        8.54351330       9.69279957      13.91271121
       299    299    1   0.000000        8.54351330      21.83388681       0.00159669
       300    300    1   0.000000        8.54351330      21.83388681      13.91271121
       301    301    1   0.000000       14.24479771       9.69279957       0.00159669
       302    302    1   0.000000       14.24479771       9.69279957      13.91271121
       303    303    1   0.000000       14.24479771      21.83388681       0.00159669
       304    304    1   0.000000       14.24479771      21.83388681      13.91271121
       305    305    1   0.000000       19.94608212       9.69279957       0.00159669
       306    306    1   0.000000       19.94608212       9.69279957      13.91271121
       307    307    1   0.000000       19.94608212      21.83388681       0.00159669
       308    308    1   0.000000       19.94608212      21.83388681      13.91271121
       309    309    1   0.000000       25.64736653       9.69279957       0.00159669
       310    310    1   0.000000       25.64736653       9.69279957      13.91271121
       311    311    1   0.000000       25.64736653      21.83388681       0.00159669
       312    312    1   0.000000       25.64736653      21.83388681      13.91271121
       313    313    1   0.000000       31.34865093       9.69279957       0.00159669
       314    314    1   0.000000       31.34865093       9.69279957      13.91271121
       315    315    1   0.000000       31.34865093      21.83388681       0.00159669
       316    316    1   0.000000       31.34865093      21.83388681      13.91271121
       317    317    1   0.000000       37.04993534       9.69279957       0.00159669
       318    318    1   0.000000       37.04993534       9.69279957      13.91271121
       319    319    1   0.000000       37.04993534      21.83388681       0.00159669
       320    320    1   0.000000       37.04993534      21.83388681      13.91271121
       321    321    1   0.000000        1.45557964       0.91103876       4.64847565
       322    322    1   0.000000        1.45557964       0.91103876      18.55959016
       323    323    1   0.000000        1.45557964      13.05212600       4.64847565
       324    324    1   0.000000        1.45557964      13.05212600      18.55959016
       325    325    1   0.000000        7.15686405       0.91103876       4.64847565
       326    326    1   0.000000        7.15686405       0.91103876      18.55959016
       327    327    1   0.000000        7.15686405      13.05212600       4.64847565
       328    328    1   0.000000        7.15686405      13.05212600      18.55959016
       329    329    1   0.000000       12.85814846       0.91103876       4.64847565
       330    330    1   0.000000       12.85814846       0.91103876      18.55959016
       331    331    1   0.000000       12.85814846      13.05212600       4.64847565
       332    332    1   0.000000       12.85814846      13.05212600      18.55959016
       333    333    1   0.000000       18.55943286       0.91103876       4.64847565
       334    334    1   0.000000       18.55943286       0.91103876      18.55959016
       335    335    1   0.000000       18.55943286      13.05212600       4.64847565
       336    336    1   0.000000       18.55943286      13.05212600      18.55959016
       337    337    1   0.000000       24.26071727       0.91103876       4.64847565
       338    338    1   0.000000       24.26071727       0.91103876      18.55959016
       339    339    1   0.000000       24.26071727      13.05212600       4.64847565
       340    340    1   0.000000       24.26071727      13.05212600      18.55959016
       341    341    1   0.000000       29.96200168       0.91103876       4.64847565
       342    342    1   0.000000       29.96200168       0.91103876      18.55959016
       343    343    1   0.000000       29.96200168      13.05212600       4.64847565