LAMMPS (16 Mar 2018)
Reading data file ...
  triclinic box = (0 0 0) to (21.8315 20.1217 28.1054) with tilt (0 0 0)
  1 by 1 by 1 MPI processor grid
  reading atoms ...
  2304 atoms
  scanning bonds ...
  1 = max bonds/atom
  reading bonds ...
  768 bonds
Finding 1-2 1-3 1-4 neighbors ...
  special bond factors lj:   0          0          0         
  special bond factors coul: 0          0          0         
  1 = max # of 1-2 neighbors
  0 = max # of 1-3 neighbors
  0 = max # of 1-4 neighbors
  1 = max # of special neighbors
768 atoms in group rigid
1536 atoms in group cores
768 atoms in group shells
WARNING: Using 'neigh_modify every 1 delay 0 check yes' setting during minimization (../min.cpp:168)
Ewald initialization ...
  using 12-bit tables for long-range coulomb (../kspace.cpp:321)
WARNING: For better accuracy use 'pair_modify table 0' (../kspace.cpp:342)
  G vector (1/distance) = 0.375581
  estimated absolute RMS force accuracy = 2.29519e-05
  estimated relative force accuracy = 1.59392e-06
  KSpace vectors: actual max1d max3d = 3171 13 9841
                  kxmax kymax kzmax  = 10 10 13
Neighbor list info ...
  update every 1 steps, delay 0 steps, check yes
  max neighbors/atom: 2000, page size: 100000
  master list distance cutoff = 12
  ghost atom cutoff = 12
  binsize = 6, bins = 4 4 5
  1 neighbor lists, perpetual/occasional/extra = 1 0 0
  (1) pair buck/coul/long/cs, perpetual
      attributes: half, newton on
      pair build: half/bin/newton/tri
      stencil: half/bin/3d/newton/tri
      bin: standard
Setting up fire style minimization ...
  Unit style    : metal
  Current step  : 0
Per MPI rank memory allocation (min/avg/max) = 60.34 | 60.34 | 60.34 Mbytes
Step TotEng Temp Fmax 
       0   -26012.595            0    16.135127 
       2   -25875.848    796.02981    10.790259 
       4   -25673.943     1449.039    13.048286 
       6   -26088.766    106.89402     11.98145 
       8   -26069.534    363.04712    6.7423594 
      10   -26047.347    532.65902    1.5540554 
      12   -26205.878   0.23263255    1.5231691 
      14   -26205.842   0.89397434    1.3693507 
      16   -26205.801    1.8275077    1.1000489 
      18   -26205.754    2.9269661   0.67177863 
      20   -26205.676    3.7433019  0.055247615 
      22   -26206.754 0.0018439756   0.32770909 
      24   -26206.753  0.016451531   0.31453792 
      26   -26206.751   0.04372459   0.28410211 
      28   -26206.749  0.080981257   0.23506952 
      30   -26206.747   0.12787774   0.15629813 
      32   -26206.745   0.16900298  0.039876362 
      34   -26206.796 1.1934048e-05  0.032756331 
      36   -26206.796 0.00010669307  0.031763554 
      38   -26206.796 0.0002865784  0.029461446 
      40   -26206.796 0.00054186822   0.02572972 
      42   -26206.796 0.00088964518  0.019658872 
      44   -26206.796 0.0012645056  0.010475915 
      46   -26206.796 0.0014588846 0.0021457024 
      48   -26206.797 7.4108862e-07 0.0021208391 
      50   -26206.797 2.9192349e-06 0.0020043797 
      52   -26206.797 6.3361214e-06 0.0018035672 
      54   -26206.797 1.138184e-05 0.0014784622 
      56   -26206.797 1.8133024e-05 0.0011710829 
      58   -26206.797 2.5419113e-05 0.0008011741 
      60   -26206.797 2.9335295e-05 0.00075456315 
      62   -26206.797 1.8281241e-08 0.0010894235 
      64   -26206.797 1.6300175e-07 0.0010443438 
      66   -26206.796 4.3203273e-07 0.00094120662 
      68   -26206.797 7.9594349e-07 0.00077397859 
      70   -26206.797 1.2444185e-06 0.00050495863 
      72   -26206.797 1.6138858e-06 0.00010798668 
      74   -26206.797 2.7030559e-10 0.00014529617 
      76   -26206.797 2.4151682e-09 0.00013995393 
      78   -26206.797 6.4622993e-09 0.00012928091 
      80   -26206.797 1.2137672e-08 0.00011189843 
      82   -26206.797 1.970704e-08 8.2675458e-05 
      84   -26206.797 2.7428326e-08 3.9586925e-05 
      86   -26206.797 3.0439325e-08 2.3332284e-05 
      88   -26206.797 2.2425609e-11 2.308735e-05 
      90   -26206.797 8.7858544e-11 2.2327552e-05 
      92   -26206.797 1.8842224e-10 2.0519987e-05 
      94   -26206.797 3.2992823e-10 1.7152288e-05 
      96   -26206.797 4.995614e-10 1.2254392e-05 
      98   -26206.797 6.3370308e-10 5.5060488e-06 
     100   -26206.797 1.5916448e-13 4.3766049e-06 
     102   -26206.797 1.420894e-12 4.2581556e-06 
     104   -26206.797 3.7779228e-12 3.9834899e-06 
     106   -26206.797 6.9772562e-12 3.6610371e-06 
     108   -26206.797 1.1138661e-11 2.9157078e-06 
     110   -26206.797 1.4951169e-11 2.1519709e-06 
     112   -26206.797 1.5624669e-11 3.1097462e-06 
     114   -26206.797 6.1039857e-14 2.6755679e-06 
     116   -26206.797 5.3612581e-13 2.9019581e-06 
     118   -26206.797 1.2896159e-12 2.0941899e-06 
     120   -26206.797 1.9854679e-12 1.7157495e-06 
     122   -26206.797 2.4037629e-12 1.8744688e-06 
     124   -26206.797 2.1268547e-12 2.0425835e-06 
     126   -26206.797 7.0518533e-14 2.0316915e-06 
     128   -26206.797 2.6251901e-13 1.8356755e-06 
     130   -26206.797 4.8042635e-13 1.8497461e-06 
     132   -26206.797 6.245905e-13 1.5935612e-06 
     134   -26206.797 6.6488743e-13 1.6363707e-06 
     136   -26206.797 5.9814634e-13 1.9131077e-06 
     138   -26206.797 1.8074129e-14 1.9214998e-06 
     140   -26206.797 1.5467943e-13 1.8722202e-06 
     142   -26206.797 3.3801515e-13 1.4187852e-06 
     144   -26206.797 4.4183325e-13 1.5147398e-06 
     146   -26206.797 3.5676674e-15 1.5864041e-06 
     148   -26206.797 3.0318413e-14 1.5771485e-06 
     150   -26206.797 7.3065916e-14 1.5557979e-06 
     152   -26206.797 1.1151515e-13 1.4210415e-06 
     154   -26206.797 1.2252631e-13 1.6712424e-06 
     156   -26206.797 1.180016e-13 1.4731332e-06 
     158   -26206.797 1.337156e-13 1.6723974e-06 
     160   -26206.797 1.9359697e-13 1.8088591e-06 
     162   -26206.797 2.7426802e-13 1.7888476e-06 
     164   -26206.797 4.1700302e-14 1.7817402e-06 
     166   -26206.797 1.3037859e-13 1.5780622e-06 
     168   -26206.797 1.7826239e-13 1.461546e-06 
     170   -26206.797 6.5386425e-15 1.4601556e-06 
     172   -26206.797 2.125396e-14 1.2271358e-06 
     174   -26206.797 3.2875517e-14 1.2174632e-06 
     176   -26206.797 4.0491645e-14 1.220576e-06 
     178   -26206.797 4.3340345e-14 1.6186447e-06 
     180   -26206.797 4.7668901e-14 1.4398957e-06 
     182   -26206.797 6.341621e-15 1.4388602e-06 
     184   -26206.797 2.1878628e-14 1.4336525e-06 
     186   -26206.797 3.4042945e-14 1.2069613e-06 
     188   -26206.797 2.8948678e-16 1.2057857e-06 
     190   -26206.797 2.5341509e-15 1.2049919e-06 
     192   -26206.797 6.2842187e-15 1.2031331e-06 
     194   -26206.797 9.1915264e-15 9.4391974e-07 
     196   -26206.797 1.0207807e-14 1.2807285e-06 
     198   -26206.797 2.0087245e-16 1.6490149e-06 
     200   -26206.797 1.7429665e-15 1.6301925e-06 
     202   -26206.797 3.9246852e-15 1.2345201e-06 
     204   -26206.797 5.4641178e-15 1.0887608e-06 
     206   -26206.797 5.5816954e-15 1.7443816e-06 
     208   -26206.797 2.9125832e-16 1.7442888e-06 
     210   -26206.797 1.0593464e-15 1.1420011e-06 
     212   -26206.797 1.9652499e-15 1.141445e-06 
     214   -26206.797 2.4960598e-15 1.4104891e-06 
     216   -26206.797 2.5563166e-15 1.4464569e-06 
     218   -26206.797 2.7453269e-15 1.7576117e-06 
     220   -26206.797 3.6944893e-15 1.7679394e-06 
     222   -26206.797 5.9466971e-15 1.4109379e-06 
     224   -26206.797 1.8843032e-16 1.4700342e-06 
     226   -26206.797 1.602866e-15 1.4114445e-06 
     228   -26206.797 3.4312401e-15 1.1422142e-06 
     230   -26206.797 3.6927951e-15 1.2270619e-06 
     232   -26206.797 1.7333429e-16 1.2270214e-06 
     234   -26206.797 6.2331833e-16 1.2268194e-06 
     236   -26206.797 1.1499622e-15 1.4450409e-06 
     238   -26206.797 1.4325748e-15 1.627039e-06 
     240   -26206.797 1.3864038e-15 1.3049218e-06 
     242   -26206.797 1.0444022e-16 1.3048977e-06 
     244   -26206.797 3.8226838e-16 1.1527106e-06 
     246   -26206.797 6.7191607e-16 1.0679201e-06 
     248   -26206.797 8.3711996e-16 1.2161117e-06 
     250   -26206.797 8.0668166e-16 1.4450383e-06 
     252   -26206.797 5.4898163e-17 1.4450221e-06 
     254   -26206.797 2.0667806e-16 1.4449502e-06 
     256   -26206.797 3.4645807e-16 1.1409924e-06 
     258   -26206.797 4.0717268e-16 1.2160735e-06 
     260   -26206.797 4.3160438e-16 1.2190805e-06 
     262   -26206.797 2.8800149e-17 1.2190741e-06 
     264   -26206.797 1.0170979e-16 1.2190429e-06 
     266   -26206.797 1.834715e-16 1.057181e-06 
     268   -26206.797 2.2356877e-16 1.1526135e-06 
     270   -26206.797 2.095165e-16 1.2832843e-06 
     272   -26206.797 2.2578881e-16 1.7665008e-06 
     274   -26206.797 3.0933206e-16 1.7435175e-06 
     276   -26206.797 4.8991245e-16 1.4448568e-06 
     278   -26206.797 1.5452999e-17 1.2300509e-06 
     280   -26206.797 1.2953281e-16 1.2300089e-06 
     282   -26206.797 2.818098e-16 1.2159814e-06 
     284   -26206.797 2.9354706e-16 1.4462483e-06 
     286   -26206.797 1.7299901e-17 1.1996959e-06 
     288   -26206.797 6.2398986e-17 1.199677e-06 
     290   -26206.797 1.1739653e-16 1.1996453e-06 
     292   -26206.797 1.3813324e-16 1.4105159e-06 
     294   -26206.797 1.9589094e-18 1.2159779e-06 
     296   -26206.797 1.7169983e-17 1.2159715e-06 
     298   -26206.797 4.2518942e-17 1.2159595e-06 
     300   -26206.797 5.863241e-17 1.4105056e-06 
     302   -26206.797 6.5287612e-17 1.0017713e-06 
     304   -26206.797 9.8373311e-19 1.6267782e-06 
     306   -26206.797 8.4642269e-18 1.1409638e-06 
     308   -26206.797 2.0427318e-17 1.1409573e-06 
     310   -26206.797 3.115649e-17 9.8429195e-07 
     312   -26206.797 3.6100889e-17 1.2189788e-06 
     314   -26206.797 3.5380092e-17 1.2159585e-06 
     316   -26206.797 2.8120352e-18 1.215958e-06 
     318   -26206.797 1.0891508e-17 1.4105057e-06 
     320   -26206.797 1.9366323e-17  1.21595e-06 
     322   -26206.797 2.3508098e-17 1.7568131e-06 
     324   -26206.797 2.6333734e-19 1.7568178e-06 
     326   -26206.797 2.3582978e-18 1.7568189e-06 
     328   -26206.797 5.8548278e-18 9.842924e-07 
     330   -26206.797 9.3055061e-18 9.8429163e-07 
     332   -26206.797 1.0704161e-17 1.4105061e-06 
     334   -26206.797 1.0216016e-17 1.4105073e-06 
     336   -26206.797 1.2135305e-17 1.2298688e-06 
     338   -26206.797 1.8094582e-17 1.2159487e-06 
     340   -26206.797 2.5839818e-17 1.7568186e-06 
     342   -26206.797 3.0460526e-17  1.75682e-06 
     344   -26206.797 4.1992099e-17 1.4105179e-06 
     346   -26206.797 5.9472422e-17  1.22986e-06 
     348   -26206.797 7.9492446e-17 1.2298554e-06 
     350   -26206.797 1.3703507e-16 1.2159397e-06 
     352   -26206.797 1.766129e-16 1.7367821e-06 
     354   -26206.797 2.7250951e-16 1.7568586e-06 
     356   -26206.797 3.8963361e-16 1.7663572e-06 
     358   -26206.797 6.3455496e-17 1.7663412e-06 
     360   -26206.797 2.0821354e-16 1.229881e-06 
     362   -26206.797 2.5290085e-16 1.4105562e-06 
     364   -26206.797 1.0897572e-17 1.4105524e-06 
     366   -26206.797 3.9795223e-17 1.0571197e-06 
     368   -26206.797 6.9876681e-17 1.0985756e-06 
     370   -26206.797 8.5332294e-17 1.7568068e-06 
     372   -26206.797 9.2404079e-17 1.2298337e-06 
     374   -26206.797 9.8641504e-17 1.7663293e-06 
     376   -26206.797 1.5705434e-16 1.7663395e-06 
     378   -26206.797 1.9732938e-16 1.4463258e-06 
     380   -26206.797 2.7704717e-16 1.7568223e-06 
     382   -26206.797 3.371361e-16 1.7568411e-06 
     384   -26206.797 4.6296309e-16 1.2298657e-06 
     386   -26206.797 6.5809727e-16 1.3048049e-06 
     388   -26206.797 1.0254346e-15 1.7664098e-06 
     390   -26206.797 1.6644724e-15 1.7433448e-06 
     392   -26206.797 7.8917783e-17 1.7570616e-06 
     394   -26206.797 6.7301355e-16 1.7431238e-06 
     396   -26206.797 1.3768938e-15 1.0903925e-06 
     398   -26206.797 1.4911923e-17 1.1411798e-06 
     400   -26206.797 1.2878682e-16 1.1996142e-06 
     402   -26206.797 3.0584542e-16 9.8488659e-07 
     404   -26206.797 4.4884322e-16 1.0571129e-06 
     406   -26206.797 5.0093799e-16 1.2775796e-06 
     408   -26206.797 8.654419e-18 1.4107075e-06 
     410   -26206.797 7.4921135e-17 1.4106793e-06 
     412   -26206.797 1.8020604e-16 1.2296929e-06 
     414   -26206.797 2.7352055e-16 1.2156166e-06 
     416   -26206.797 2.8742573e-16 1.1996898e-06 
     418   -26206.797 1.4308866e-17 1.1996842e-06 
     420   -26206.797 5.0989543e-17 1.1411306e-06 
     422   -26206.797 8.7786011e-17 1.7658601e-06 
     424   -26206.797 1.1614786e-16 1.4463288e-06 
     426   -26206.797 1.2616935e-16 1.1525606e-06 
     428   -26206.797 7.8700816e-18 1.1525594e-06 
     430   -26206.797 2.9660898e-17 1.2155281e-06 
     432   -26206.797 5.2503107e-17 1.4463169e-06 
     434   -26206.797 6.0483284e-17 1.4282269e-06 
     436   -26206.797 5.6673919e-17 1.7658537e-06 
     438   -26206.797 6.5252558e-17 1.2775241e-06 
     440   -26206.797 8.4676254e-17 1.2155306e-06 
     442   -26206.797 1.3562456e-16 1.7364355e-06 
     444   -26206.797 1.6588478e-16 1.7364403e-06 
     446   -26206.797 2.4591096e-16 1.6264092e-06 
     448   -26206.797 3.3672637e-16 1.7658765e-06 
     450   -26206.797 4.7498865e-17 1.765863e-06 
     452   -26206.797 1.5507122e-16 1.1825637e-06 
     454   -26206.797 2.1694692e-16 1.2295275e-06 
     456   -26206.797 8.8181808e-18 1.2295252e-06 
     458   -26206.797 3.3689105e-17 1.2295125e-06 
     460   -26206.797 6.2152816e-17 1.1410616e-06 
     462   -26206.797 7.4218597e-17 1.1410787e-06 
     464   -26206.797 7.7429886e-17 1.6263308e-06 
     466   -26206.797 9.0179737e-17 1.4106239e-06 
     468   -26206.797 1.2974982e-16 1.7657904e-06 
     470   -26206.797 1.6550433e-16 1.7364482e-06 
     472   -26206.797 2.148717e-16 1.2323268e-06 
     474   -26206.797 2.9357127e-16 1.4443905e-06 
     476   -26206.797 3.8575996e-16 1.4107023e-06 
     478   -26206.797 5.443023e-16 1.7657951e-06 
     480   -26206.797 8.800604e-16 1.7430159e-06 
     482   -26206.797 1.2065515e-15 1.756863e-06 
     484   -26206.797 1.941737e-15 1.4443768e-06 
     486   -26206.797 3.3008444e-16 1.4443084e-06 
     488   -26206.797 1.0396229e-15 1.4695986e-06 
     490   -26206.797 1.2641014e-15 1.4108011e-06 
     492   -26206.797 5.7572941e-17 1.4107828e-06 
     494   -26206.797 2.0803527e-16 1.4106909e-06 
     496   -26206.797 3.6418104e-16 1.2293407e-06 
     498   -26206.797 4.4167196e-16 1.2152527e-06 
     500   -26206.797 4.7298474e-16 1.7361012e-06 
     502   -26206.797 5.3088177e-16 1.2330923e-06 
     504   -26206.797 6.844595e-16 1.7427989e-06 
     506   -26206.797 1.0363667e-15 1.6086973e-06 
     508   -26206.797 1.3457547e-15 1.2836702e-06 
     510   -26206.797 1.6499913e-15 1.6510054e-06 
     512   -26206.797 7.8623574e-17 1.4466266e-06 
     514   -26206.797 6.5255474e-16 1.2125464e-06 
     516   -26206.797 1.2713967e-15 1.2291857e-06 
     518   -26206.797 1.2971499e-15 1.4464525e-06 
     520   -26206.797 8.5553677e-17 1.4282289e-06 
     522   -26206.797 3.0585172e-16 1.2292213e-06 
     524   -26206.797 5.3115601e-16 1.4267673e-06 
     526   -26206.797 6.3788063e-16 1.4267443e-06 
     528   -26206.797 5.9803227e-16 1.7425808e-06 
     530   -26206.797 4.8988754e-17 1.736151e-06 
     532   -26206.797 1.7786835e-16 1.736082e-06 
     534   -26206.797 3.1295662e-16 1.214896e-06 
     536   -26206.797 3.970027e-16 1.650904e-06 
     538   -26206.797 4.9998034e-18 1.4281545e-06 
     540   -26206.797 4.2744784e-17 1.1728146e-06 
     542   -26206.797 1.0638015e-16 1.1606999e-06 
     544   -26206.797 1.4653294e-16 8.8908385e-07 
     546   -26206.797 1.5220937e-16 1.4107576e-06 
     548   -26206.797 1.5865995e-16 1.7425388e-06 
     550   -26206.797 1.8315733e-16 1.742535e-06 
     552   -26206.797 2.7319381e-16 1.7360822e-06 
     554   -26206.797 3.6768325e-16 1.6509758e-06 
     556   -26206.797 5.8907643e-17 1.6509629e-06 
     558   -26206.797 2.0194172e-16 1.2288763e-06 
     560   -26206.797 2.5006842e-16 1.4463991e-06 
     562   -26206.797 3.2579321e-18 1.7648494e-06 
     564   -26206.797 2.8904296e-17 1.4464156e-06 
     566   -26206.797 6.8869101e-17 1.4463928e-06 
     568   -26206.797 9.0709392e-17 1.1099076e-06 
     570   -26206.797 9.3621076e-17 1.4267026e-06 
     572   -26206.797 9.0804565e-17 1.4267185e-06 
     574   -26206.797 9.6431973e-18 1.4267164e-06 
     576   -26206.797 3.5095782e-17 1.2607749e-06 
     578   -26206.797 5.9328568e-17 1.2607576e-06 
     580   -26206.797 6.6893865e-17 1.7424673e-06 
     582   -26206.797 5.8613075e-17 1.2339559e-06 
     584   -26206.797 4.6847959e-18 1.2339548e-06 
     586   -26206.797 1.707693e-17 1.2147102e-06 
     588   -26206.797 2.9843354e-17 1.2147015e-06 
     590   -26206.797 3.5531715e-17 1.7424605e-06 
     592   -26206.797 3.4593171e-17 1.4107529e-06 
     594   -26206.797 7.4765395e-19 1.4107591e-06 
     596   -26206.797 6.6158879e-18 1.6446237e-06 
     598   -26206.797 1.5565523e-17 1.2287919e-06 
     600   -26206.797 2.2368442e-17 1.4436371e-06 
     602   -26206.797 2.4226447e-17 1.4463722e-06 
     604   -26206.797 3.6792083e-19 1.2146915e-06 
     606   -26206.797 3.1426664e-18 1.2146894e-06 
     608   -26206.797 7.7629136e-18 1.4463732e-06 
     610   -26206.797 1.2026186e-17 1.4463712e-06 
     612   -26206.797 1.3013992e-17 1.7585345e-06 
     614   -26206.797 2.2338295e-19 1.6255995e-06 
     616   -26206.797 2.0104464e-18 1.6256013e-06 
     618   -26206.797 4.834347e-18 1.0919474e-06 
     620   -26206.797 7.0010547e-18 1.2000705e-06 
     622   -26206.797 7.2622068e-18 1.6446272e-06 
     624   -26206.797 9.699224e-20 1.4107513e-06 
     626   -26206.797 8.6757681e-19 1.2287769e-06 
     628   -26206.797 2.2846056e-18 1.2146854e-06 
     630   -26206.797 3.4799884e-18 1.0568004e-06 
     632   -26206.797 4.3064333e-18  1.76483e-06 
     634   -26206.797 4.6899932e-18 1.7424532e-06 
     636   -26206.797 4.7648957e-18 1.7424544e-06 
     638   -26206.797 5.325735e-19 1.7424505e-06 
     640   -26206.797 2.0837392e-18 1.2339699e-06 
     642   -26206.797 3.7963644e-18 1.2000677e-06 
     644   -26206.797 4.7572024e-18 1.4436362e-06 
     646   -26206.797 3.7557776e-20 1.4436362e-06 
     648   -26206.797 3.3801999e-19 1.4436362e-06 
     650   -26206.797 9.0398797e-19 1.4436361e-06 
     652   -26206.797 1.6716567e-18 9.9764953e-07 
     654   -26206.797 2.4059683e-18 1.4463687e-06 
     656   -26206.797 2.9333858e-18 1.200068e-06 
     658   -26206.797 2.7713182e-18 1.7585341e-06 
     660   -26206.797 2.1318231e-19 1.7585341e-06 
     662   -26206.797 8.2903606e-19 1.4107514e-06 
     664   -26206.797 1.7164171e-18 1.2000677e-06 
     666   -26206.797 2.6381343e-18 1.2287737e-06 
     668   -26206.797 2.7377035e-18 1.228774e-06 
     670   -26206.797 2.3835705e-18 1.7648293e-06 
     672   -26206.797 2.3903732e-18 1.4436327e-06 
     674   -26206.797 2.9606493e-18 1.6446259e-06 
     676   -26206.797 3.9234059e-18 1.6446286e-06 
     678   -26206.797 5.6274213e-18 1.283598e-06 
     680   -26206.797 7.1169251e-18 1.2287724e-06 
     682   -26206.797 9.7658901e-18 1.4463706e-06 
     684   -26206.797 1.4202034e-17 1.428065e-06 
     686   -26206.797 1.9165046e-17 1.6446278e-06 
     688   -26206.797 3.0470519e-17 1.4695022e-06 
     690   -26206.797 4.3403634e-17 1.4266888e-06 
     692   -26206.797 6.2775506e-17 1.764838e-06 
     694   -26206.797 9.4737923e-17 1.4107729e-06 
     696   -26206.797 1.4921659e-17 1.4107692e-06 
     698   -26206.797 5.2920448e-17 1.2146892e-06 
     700   -26206.797 6.7749076e-17 1.4436275e-06 
     702   -26206.797 2.797881e-18 1.4436293e-06 
     704   -26206.797 1.0172418e-17 9.9766554e-07 
     706   -26206.797 1.7072226e-17 1.2340042e-06 
     708   -26206.797  2.13119e-17 1.2146696e-06 
     710   -26206.797 2.5114246e-17 1.2287649e-06 
     712   -26206.797 1.8230584e-18 1.2287648e-06 
     714   -26206.797 6.7098605e-18 1.2287626e-06 
     716   -26206.797 1.1620495e-17 1.1412435e-06 
     718   -26206.797 1.2780358e-17 1.4463743e-06 
     720   -26206.797 2.0119114e-19 1.446377e-06 
     722   -26206.797 1.7929307e-18 1.4463757e-06 
     724   -26206.797 4.4692997e-18 1.4463743e-06 
     726   -26206.797 6.5503631e-18 1.2607398e-06 
     728   -26206.797 6.7609836e-18 1.2607401e-06 
     730   -26206.797 9.6778518e-20 1.2000728e-06 
     732   -26206.797 8.7100663e-19 1.2000747e-06 
     734   -26206.797 2.2199357e-18 1.056799e-06 
     736   -26206.797 3.6817901e-18 1.056798e-06 
     738   -26206.797 4.4068378e-18 1.2287579e-06 
     740   -26206.797 4.4545245e-18 1.4107563e-06 
     742   -26206.797 2.7189079e-19 1.4107563e-06 
     744   -26206.797 1.0688711e-18 1.4107558e-06 
     746   -26206.797 2.2473594e-18 1.1412435e-06 
     748   -26206.797 3.2591143e-18 1.1412421e-06 
     750   -26206.797 3.4949237e-18 1.2000765e-06 
     752   -26206.797 3.9239371e-20 1.2152324e-06 
     754   -26206.797 3.5315433e-19 1.2152326e-06 
     756   -26206.797 9.4649777e-19 1.0567982e-06 
     758   -26206.797 1.7019529e-18 1.2146652e-06 
     760   -26206.797 2.5172363e-18 1.2287567e-06 
     762   -26206.797 2.7955065e-18 1.7585297e-06 
     764   -26206.797 2.5820346e-18 1.4107563e-06 
     766   -26206.797 2.710372e-18 1.4463723e-06 
     768   -26206.797 4.2328666e-18 1.2340139e-06 
     770   -26206.797 5.1364112e-18 1.2287568e-06 
     772   -26206.797 6.806919e-18 1.7585306e-06 
     774   -26206.797 8.8933933e-18 1.7585312e-06 
     776   -26206.797 1.2391622e-17 1.7424409e-06 
     778   -26206.797 1.7657457e-17 1.283605e-06 
     780   -26206.797 2.6423576e-17 1.2287564e-06 
     782   -26206.797 3.6805882e-17 1.1665121e-06 
     784   -26206.797 5.3997849e-17 1.7585369e-06 
     786   -26206.797 7.6567716e-17 1.7585506e-06 
     788   -26206.797 1.0904136e-16 1.7424499e-06 
     790   -26206.797 1.604094e-16 1.6509746e-06 
     792   -26206.797 2.3619513e-16 1.7648379e-06 
     794   -26206.797 3.5214575e-16 1.4108647e-06 
     796   -26206.797 5.1259879e-16 1.7586312e-06 
     798   -26206.797 7.6662772e-16 1.7587269e-06 
     800   -26206.797 1.1408361e-15 1.4223433e-06 
     802   -26206.797 1.634852e-15 1.7648139e-06 
     804   -26206.797 2.6013313e-15 1.7650638e-06 
     806   -26206.797 3.8317796e-15 1.6449482e-06 
     808   -26206.797 5.6185156e-15 1.7574179e-06 
     810   -26206.797 1.0237557e-15 1.7571783e-06 
     812   -26206.797 3.5254052e-15 1.4473538e-06 
     814   -26206.797 4.0223606e-15 1.5706991e-06 
     816   -26206.797 1.762494e-16 1.5706432e-06 
     818   -26206.797 6.6630408e-16 1.570377e-06 
     820   -26206.797 1.1474309e-15   1.1416e-06 
     822   -26206.797 1.4175229e-15 1.1086931e-06 
     824   -26206.797 1.4920214e-15  1.22846e-06 
     826   -26206.797 1.595033e-15 1.4431364e-06 
     828   -26206.797 2.2042631e-15 1.7361915e-06 
     830   -26206.797 3.5017032e-16 1.6453599e-06 
     832   -26206.797 1.2222192e-15 1.6450405e-06 
     834   -26206.797 1.7188312e-15 1.0569413e-06 
     836   -26206.797 1.476645e-17 1.2366089e-06 
     838   -26206.797 1.2804216e-16 1.0569654e-06 
     840   -26206.797 3.1012127e-16 1.0568786e-06 
     842   -26206.797 4.6855995e-16 1.056734e-06 
     844   -26206.797 5.1244275e-16 1.4473446e-06 
     846   -26206.797 2.9129581e-17 1.4473376e-06 
     848   -26206.797 1.0208025e-16 1.4111037e-06 
     850   -26206.797 1.7751254e-16 1.1414497e-06 
     852   -26206.797 2.160902e-16 1.0566702e-06 
     854   -26206.797 2.948592e-18 1.283747e-06 
     856   -26206.797 2.6100544e-17 1.2275432e-06 
     858   -26206.797 6.2909736e-17 1.0566749e-06 
     860   -26206.797 9.2127315e-17 1.0566463e-06 
     862   -26206.797 9.9621713e-17 1.2134624e-06 
     864   -26206.797 1.0109859e-16 1.4473282e-06 
     866   -26206.797 1.2296956e-16 1.4110587e-06 
     868   -26206.797 1.8463352e-16 1.4110539e-06 
     870   -26206.797 2.4515225e-16 1.6448386e-06 
     872   -26206.797 3.0866111e-17 1.6448331e-06 
     874   -26206.797 1.1423754e-16 1.6447901e-06 
     876   -26206.797 1.6519746e-16 1.2916089e-06 
     878   -26206.797 1.9658069e-18 1.2637756e-06 
     880   -26206.797 1.7198718e-17 1.2637703e-06 
     882   -26206.797 4.1245128e-17 1.4110296e-06 
     884   -26206.797 5.7893696e-17 1.1060941e-06 
     886   -26206.797 5.3800051e-17 1.4276107e-06 
     888   -26206.797 5.1124641e-17 1.4276058e-06 
     890   -26206.797 6.4027763e-17 1.4215008e-06 
     892   -26206.797 1.0396809e-16 1.6448068e-06 
     894   -26206.797 1.334546e-16 1.6447845e-06 
     896   -26206.797 1.6784139e-16 1.5079938e-06 
     898   -26206.797 2.1798471e-16 1.427651e-06 
     900   -26206.797 2.9752549e-16 1.7582481e-06 
     902   -26206.797 5.0071064e-16 1.7642412e-06 
     904   -26206.797 8.1152587e-16 1.508048e-06 
     906   -26206.797 1.5404231e-16 1.4536743e-06 
     908   -26206.797 4.7824816e-16 1.2275393e-06 
     910   -26206.797 5.3858666e-16 1.2369797e-06 
     912   -26206.797 2.6022327e-17 1.2369738e-06 
     914   -26206.797 9.6114543e-17 1.2610017e-06 
     916   -26206.797 1.5652929e-16 1.2609816e-06 
     918   -26206.797 1.9880151e-16 1.2274411e-06 
     920   -26206.797 3.1331575e-18 1.5079991e-06 
     922   -26206.797 2.8076142e-17 1.5079893e-06 
     924   -26206.797 6.6311327e-17 1.5079662e-06 
     926   -26206.797 8.776571e-17 1.0565585e-06 
     928   -26206.797 8.9088795e-17 1.4473843e-06 
     930   -26206.797 4.7885189e-18 1.427557e-06 
     932   -26206.797 1.8090939e-17 1.2132783e-06 
     934   -26206.797 3.2708961e-17 1.0565746e-06 
     936   -26206.797 4.4102157e-17 1.1311975e-06 
     938   -26206.797 4.6039169e-17 1.2305298e-06 
     940   -26206.797 2.705749e-18 1.2305298e-06 
     942   -26206.797 1.0222656e-17 1.2305264e-06 
     944   -26206.797 1.8574866e-17 1.213276e-06 
     946   -26206.797 2.1276396e-17 1.2132761e-06 
     948   -26206.797 2.1512852e-17 1.4275517e-06 
     950   -26206.797 2.3007819e-17 1.4110601e-06 
     952   -26206.797 3.2800736e-17 1.4270302e-06 
     954   -26206.797 4.9454081e-17 1.4692702e-06 
     956   -26206.797  5.78383e-17 1.6243102e-06 
     958   -26206.797 8.1426745e-17 1.7582057e-06 
     960   -26206.797 1.1318372e-16 1.7582011e-06 
     962   -26206.797 5.8609108e-18 1.6448166e-06 
     964   -26206.797 4.9863665e-17 1.7420847e-06 
     966   -26206.797 9.6202645e-17 1.0746075e-06 
     968   -26206.797 9.0743215e-17 1.7582011e-06 
     970   -26206.797 6.1722904e-18 1.7581972e-06 
     972   -26206.797 2.2064533e-17 1.4275523e-06 
     974   -26206.797 3.6877135e-17 9.7074488e-07 
     976   -26206.797 4.3432632e-17 1.1186126e-06 
     978   -26206.797 5.6856217e-19 1.2273214e-06 
     980   -26206.797 5.0232295e-18 1.2273196e-06 
     982   -26206.797 1.2429434e-17 1.0565541e-06 
     984   -26206.797 1.7773675e-17 1.1084007e-06 
     986   -26206.797 2.1289104e-17 1.4264652e-06 
     988   -26206.797 2.0814177e-17 1.427545e-06 
     990   -26206.797 1.7862094e-18 1.4275441e-06 
     992   -26206.797 6.7505198e-18 1.2132597e-06 
     994   -26206.797 1.1334258e-17 1.2132565e-06 
     996   -26206.797 1.3662088e-17 1.2637582e-06 
     998   -26206.797 1.5599712e-19 1.2637578e-06 
    1000   -26206.797 1.366944e-18 1.2637589e-06 
    1002   -26206.797 3.3473616e-18 1.2637595e-06 
    1004   -26206.797 5.4386822e-18 1.4264628e-06 
    1006   -26206.797 6.3381562e-18 1.4264632e-06 
    1008   -26206.797 5.7580647e-18 1.2609096e-06 
    1010   -26206.797 4.7617525e-19 1.2609091e-06 
    1012   -26206.797 1.8678423e-18 1.200819e-06 
    1014   -26206.797 3.756512e-18 1.2008189e-06 
    1016   -26206.797 5.0621644e-18 1.0929636e-06 
    1018   -26206.797 3.8180836e-20 1.1352638e-06 
    1020   -26206.797 3.4362752e-19 1.0929637e-06 
    1022   -26206.797 9.0193232e-19 1.0929648e-06 
    1024   -26206.797 1.6855016e-18 1.056542e-06 
    1026   -26206.797 2.533808e-18 1.2008191e-06 
    1028   -26206.797 3.2224148e-18 1.2008214e-06 
    1030   -26206.797 4.0380766e-20 1.2370305e-06 
    1032   -26206.797 3.6353396e-19 1.2370305e-06 
    1034   -26206.797 9.9906271e-19 1.2370305e-06 
    1036   -26206.797 1.7836934e-18 1.1414984e-06 
    1038   -26206.797 2.4876657e-18 9.9690258e-07 
    1040   -26206.797 2.3823025e-18 1.2273113e-06 
    1042   -26206.797 2.1359805e-18 1.4121874e-06 
    1044   -26206.797 2.4783859e-18 1.4121849e-06 
    1046   -26206.797 3.5795084e-18 1.2370313e-06 
    1048   -26206.797 4.5353872e-18 1.7420746e-06 
    1050   -26206.797 6.0311651e-18 1.4473987e-06 
    1052   -26206.797 8.2338777e-18 1.3632138e-06 
    1054   -26206.797 1.0244583e-17 1.7581898e-06 
    1056   -26206.797 1.4871232e-17 1.5079416e-06 
    1058   -26206.797 2.1378889e-17 1.7420768e-06 
    1060   -26206.797 3.6167218e-17 1.6071985e-06 
    1062   -26206.797 4.6494735e-17 1.4780208e-06 
    1064   -26206.797 8.3785138e-18 1.4780181e-06 
    1066   -26206.797 2.9486925e-17 1.2273096e-06 
    1068   -26206.797 3.7803408e-17 1.4474054e-06 
    1070   -26206.797 1.6626789e-18 1.4474053e-06 
    1072   -26206.797 6.0980392e-18 1.2637589e-06 
    1074   -26206.797 1.0343364e-17 1.2273037e-06 
    1076   -26206.797 1.1976056e-17 1.4110615e-06 
    1078   -26206.797 1.2446996e-17 1.7358934e-06 
    1080   -26206.797 1.4078427e-17 1.7358952e-06 
    1082   -26206.797 1.7076202e-17 1.6447977e-06 
    1084   -26206.797 2.6026406e-17 1.7420745e-06 
    1086   -26206.797 1.2082722e-18 1.7420707e-06 
    1088   -26206.797 1.0257099e-17 1.4536509e-06 
    1090   -26206.797 1.9194525e-17 1.2132406e-06 
    1092   -26206.797 1.7822281e-17 1.4423018e-06 
    1094   -26206.797 1.1082236e-18 1.4423018e-06 
    1096   -26206.797 4.0977221e-18 1.2132382e-06 
    1098   -26206.797 7.5199421e-18 1.0565396e-06 
    1100   -26206.797 8.6663878e-18 1.1415026e-06 
    1102   -26206.797 1.0898379e-19 1.2272997e-06 
    1104   -26206.797 9.8085421e-19 1.2272993e-06 
    1106   -26206.797 2.6150881e-18 1.2272984e-06 
    1108   -26206.797 4.2822024e-18 1.1415018e-06 
    1110   -26206.797 4.8246439e-18 1.2132373e-06 
    1112   -26206.797 4.1950398e-18 1.4110622e-06 
    1114   -26206.797 4.5768958e-18 1.4423005e-06 
    1116   -26206.797 6.2752482e-18 1.7420656e-06 
    1118   -26206.797 8.9786695e-18 1.4723836e-06 
    1120   -26206.797 3.9257162e-19 1.3632177e-06 
    1122   -26206.797 3.4214594e-18 1.3632216e-06 
    1124   -26206.797 7.2573992e-18 1.5079401e-06 
    1126   -26206.797 7.5703579e-18 1.4270241e-06 
    1128   -26206.797 3.5325779e-19 1.4270241e-06 
    1130   -26206.797 1.341402e-18 1.0643119e-06 
    1132   -26206.797 2.5664201e-18 1.2132361e-06 
    1134   -26206.797 3.5234726e-18 1.2132364e-06 
    1136   -26206.797 3.438793e-18 1.4275353e-06 
    1138   -26206.797 1.8577595e-19 1.4275353e-06 
    1140   -26206.797 7.3892477e-19 1.4275353e-06 
    1142   -26206.797 1.5388183e-18 1.4275353e-06 
    1144   -26206.797 2.433538e-18 1.2272962e-06 
    1146   -26206.797 2.754312e-18 1.7581816e-06 
    1148   -26206.797 2.563007e-18 1.7581836e-06 
    1150   -26206.797 2.5442797e-18 1.6448007e-06 
    1152   -26206.797 3.0689519e-18 1.7420642e-06 
    1154   -26206.797 4.1732119e-18 1.4423004e-06 
    1156   -26206.797 6.8283345e-19 1.4423004e-06 
    1158   -26206.797 2.6135009e-18 1.4423022e-06 
    1160   -26206.797 4.3462372e-18 1.106048e-06 
    1162   -26206.797 4.2372993e-18 1.4110621e-06 
    1164   -26206.797 1.629723e-19 1.4110621e-06 
    1166   -26206.797 6.5188921e-19 1.4110617e-06 
    1168   -26206.797 1.4149263e-18 1.2132363e-06 
    1170   -26206.797 2.1949554e-18 1.2132363e-06 
    1172   -26206.797 2.5875423e-18 1.4275343e-06 
    1174   -26206.797 2.5818536e-18 1.4270269e-06 
    1176   -26206.797 1.4660906e-19 1.4270269e-06 
    1178   -26206.797 5.8643623e-19 1.4270269e-06 
    1180   -26206.797 1.231591e-18 1.4270269e-06 
    1182   -26206.797 2.0082006e-18 1.6071915e-06 
    1184   -26206.797 2.5616488e-18 1.1610998e-06 
    1186   -26206.797 1.9227807e-20 1.4474066e-06 
    1188   -26206.797 1.7120608e-19 1.2370686e-06 
    1190   -26206.797 4.6602611e-19 1.2370686e-06 
    1192   -26206.797 8.9785215e-19 1.2370686e-06 
    1194   -26206.797 1.4745324e-18 1.4423039e-06 
    1196   -26206.797 1.8653083e-18 1.7358957e-06 
    1198   -26206.797 1.9998209e-18 1.6447992e-06 
    1200   -26206.797 2.1214403e-18 1.427023e-06 
    1202   -26206.797 2.300956e-18 1.4723834e-06 
    1204   -26206.797 2.5553509e-18 1.4121825e-06 
    1206   -26206.797 3.2744797e-18 1.7358967e-06 
    1208   -26206.797 4.4467827e-18 1.6071923e-06 
    1210   -26206.797 5.6948529e-18 1.6447976e-06 
    1212   -26206.797 7.6266948e-18 1.4264649e-06 
    1214   -26206.797 3.997805e-19 1.4264639e-06 
    1216   -26206.797 3.376718e-18 1.3632195e-06 
    1218   -26206.797 6.7260033e-18 1.2609081e-06 
    1220   -26206.797 7.8471669e-20 1.2272941e-06 
    1222   -26206.797 6.8399639e-19 1.2008258e-06 
    1224   -26206.797 1.7484281e-18 1.2008216e-06 
    1226   -26206.797 2.6960853e-18 1.0565378e-06 
    1228   -26206.797 3.3717283e-18 1.4110629e-06 
    1230   -26206.797 3.2197069e-18 1.4110628e-06 
    1232   -26206.797 3.6067231e-18 1.6242629e-06 
    1234   -26206.797 4.7801492e-18 1.6071916e-06 
    1236   -26206.797 6.5508946e-18 1.6071916e-06 
    1238   -26206.797 9.2412162e-19 1.6071914e-06 
    1240   -26206.797 3.5086682e-18 1.1576006e-06 
    1242   -26206.797 5.6775159e-18 1.4474087e-06 
    1244   -26206.797 5.3704795e-20 1.4474088e-06 
    1246   -26206.797 4.7917494e-19 1.4474097e-06 
    1248   -26206.797 1.2886487e-18 1.4474086e-06 
    1250   -26206.797 2.2875396e-18 1.0565367e-06 
    1252   -26206.797 2.8725862e-18 1.5079447e-06 
    1254   -26206.797 2.8938451e-18 1.5079397e-06 
    1256   -26206.797 2.764213e-18 1.4422998e-06 
    1258   -26206.797 9.1285683e-20 1.7420647e-06 
    1260   -26206.797 8.108148e-19 1.6242618e-06 
    1262   -26206.797 2.0156479e-18 1.6242618e-06 
    1264   -26206.797 3.2925218e-18 1.2637584e-06 
    1266   -26206.797 3.5644856e-18 1.5079421e-06 
    1268   -26206.797 1.0048166e-19 1.507942e-06 
    1270   -26206.797 3.9927863e-19 1.507942e-06 
    1272   -26206.797 8.9210727e-19 1.2008248e-06 
    1274   -26206.797 1.448572e-18 1.0565365e-06 
    1276   -26206.797 2.061735e-18 1.4110626e-06 
    1278   -26206.797 2.331988e-18 1.7581811e-06 
    1280   -26206.797 2.243574e-18 1.7581853e-06 
    1282   -26206.797 5.5858161e-20 1.6071914e-06 
    1284   -26206.797 4.9916578e-19 1.6071912e-06 
    1286   -26206.797 1.3176698e-18 1.5079414e-06 
    1288   -26206.797 2.2700368e-18 1.447408e-06 
    1290   -26206.797 2.7377795e-18 1.4264627e-06 
    1292   -26206.797 2.393593e-18 1.4264627e-06 
    1294   -26206.797 2.8913658e-20 1.4264627e-06 
    1296   -26206.797 2.6022292e-19 1.4264627e-06 
    1298   -26206.797 7.1399361e-19 1.4264627e-06 
    1300   -26206.797 1.2719897e-18 1.2272908e-06 
    1302   -26206.797 1.9182876e-18 1.2609077e-06 
    1304   -26206.797 2.1994589e-18 1.7581831e-06 
    1306   -26206.797 2.411638e-18 1.7581811e-06 
    1308   -26206.797 4.1653706e-20 1.6071914e-06 
    1310   -26206.797 3.7370769e-19 1.5079417e-06 
    1312   -26206.797 1.0047953e-18 1.5079391e-06 
    1314   -26206.797 1.6999383e-18 1.2609079e-06 
    1316   -26206.797 2.2907379e-18 1.4474085e-06 
    1318   -26206.797 2.3869223e-18 1.6447984e-06 
    1320   -26206.797 2.847775e-20 1.6447984e-06 
    1322   -26206.797 2.5629975e-19 1.6447984e-06 
    1324   -26206.797 6.4435957e-19 1.6447984e-06 
    1326   -26206.797 1.1956013e-18 1.0929312e-06 
    1328   -26206.797 1.6953058e-18 1.2008203e-06 
    1330   -26206.797 1.980985e-18 1.7581853e-06 
    1332   -26206.797 2.0240293e-18 1.6071914e-06 
    1334   -26206.797 4.0219268e-20 1.6071916e-06 
    1336   -26206.797 3.6197341e-19 1.6071915e-06 
    1338   -26206.797 9.6112072e-19 1.6071912e-06 
    1340   -26206.797 1.6644014e-18 1.5079409e-06 
    1342   -26206.797 2.2761487e-18 1.3632203e-06 
    1344   -26206.797 2.173948e-18 1.7581833e-06 
    1346   -26206.797 2.4460177e-20 1.7581833e-06 
    1348   -26206.797  2.20079e-19 1.7581833e-06 
    1350   -26206.797 5.804516e-19 1.7581852e-06 
    1352   -26206.797 1.0704234e-18 1.2837698e-06 
    1354   -26206.797 1.5908673e-18 1.4474081e-06 
    1356   -26206.797 2.0260133e-18 1.6447981e-06 
    1358   -26206.797 1.980525e-18 1.6447984e-06 
    1360   -26206.797 2.0522852e-18 1.7359002e-06 
    1362   -26206.797 1.7907423e-19 1.7358999e-06 
    1364   -26206.797 6.9997357e-19 1.6071917e-06 
    1366   -26206.797 1.4043389e-18 1.5079432e-06 
    1368   -26206.797 2.2162915e-18 1.4693921e-06 
    1370   -26206.797 2.5822784e-18 1.7581853e-06 
    1372   -26206.797 2.2860211e-20 1.7581853e-06 
    1374   -26206.797 2.057419e-19 1.7581853e-06 
    1376   -26206.797 5.4923194e-19 1.4474084e-06 
    1378   -26206.797 9.7802541e-19 1.2304942e-06 
    1380   -26206.797 1.401184e-18 1.1737992e-06 
    1382   -26206.797 1.7414439e-18 1.3632251e-06 
    1384   -26206.797 1.9333629e-18 1.6447984e-06 
    1386   -26206.797 1.9910449e-18 1.7420623e-06 
    1388   -26206.797 1.6798708e-19 1.7420622e-06 
    1390   -26206.797 6.5511742e-19 1.6447984e-06 
    1392   -26206.797 1.3170512e-18 1.5079388e-06 
    1394   -26206.797 1.9995172e-18 1.4474088e-06 
    1396   -26206.797 2.344712e-18 1.7581872e-06 
    1398   -26206.797 1.9033417e-20 1.7581872e-06 
    1400   -26206.797 1.7130076e-19 1.7581872e-06 
    1402   -26206.797 4.5388379e-19 1.4264626e-06 
    1404   -26206.797 8.1566085e-19 1.4693923e-06 
    1406   -26206.797 1.2242667e-18 1.4693927e-06 
    1408   -26206.797 1.7095961e-18 1.2008203e-06 
    1410   -26206.797 1.9149691e-18 1.6071917e-06 
    1412   -26206.797 2.6630664e-20 1.7581849e-06 
    1414   -26206.797 2.3967598e-19 1.7581849e-06 
    1416   -26206.797 6.2203174e-19 1.6071916e-06 
    1418   -26206.797 1.057633e-18 1.4474088e-06 
    1420   -26206.797 1.4806133e-18 1.2132324e-06 
    1422   -26206.797 1.7537944e-18  1.22729e-06 
    1424   -26206.797 1.6889054e-18 1.6447983e-06 
    1426   -26206.797 1.7020433e-18 1.7581852e-06 
    1428   -26206.797 2.0696893e-18 1.758185e-06 
    1430   -26206.797 2.6356999e-18 1.607192e-06 
    1432   -26206.797 3.3710002e-18 1.6071921e-06 
    1434   -26206.797 5.5762548e-19 1.6071918e-06 
    1436   -26206.797 2.0766803e-18 1.4780185e-06 
    1438   -26206.797 3.4646206e-18 1.7420642e-06 
    1440   -26206.797 3.6312938e-18 1.5079396e-06 
    1442   -26206.797 1.4435155e-19 1.5079396e-06 
    1444   -26206.797 5.7341864e-19 1.5079396e-06 
    1446   -26206.797 1.2159371e-18 1.4422962e-06 
    1448   -26206.797 1.8647944e-18 1.0565373e-06 
    1450   -26206.797 2.3677614e-18 1.6448006e-06 
    1452   -26206.797 2.5365316e-18 1.6448006e-06 
    1454   -26206.797 4.4851231e-20 1.607192e-06 
    1456   -26206.797 4.0314029e-19 1.6071917e-06 
    1458   -26206.797 1.0757154e-18 1.4275336e-06 
    1460   -26206.797 1.8863562e-18 1.4275336e-06 
    1462   -26206.797 2.6879727e-18 1.6448006e-06 
    1464   -26206.797 2.4939819e-18 1.7581805e-06 
    1466   -26206.797 8.0090957e-20 1.7581805e-06 
    1468   -26206.797 3.1465765e-19 1.6448006e-06 
    1470   -26206.797 6.4781527e-19 1.6448006e-06 
    1472   -26206.797 1.1049035e-18 1.2008203e-06 
    1474   -26206.797 1.5644064e-18 1.2272894e-06 
    1476   -26206.797 1.9262501e-18 1.2838279e-06 
    1478   -26206.797 2.1489693e-18 1.7359007e-06 
    1480   -26206.797 4.3614291e-20 1.7581868e-06 
    1482   -26206.797 3.917747e-19 1.607192e-06 
    1484   -26206.797 1.0084537e-18 1.6071916e-06 
    1486   -26206.797 1.7858992e-18 1.4275342e-06 
    1488   -26206.797 2.402084e-18 1.2609071e-06 
    1490   -26206.797 2.1386717e-18 1.7359003e-06 
    1492   -26206.797 2.3810453e-20 1.6448005e-06 
    1494   -26206.797 2.1298671e-19 1.6448005e-06 
    1496   -26206.797 5.8035449e-19 1.6448005e-06 
    1498   -26206.797 1.0818305e-18 1.5079412e-06 
    1500   -26206.797 1.5620535e-18 1.0565371e-06 
    1502   -26206.797 1.9035836e-18 1.7581823e-06 
    1504   -26206.797 2.2064029e-18 1.6071921e-06 
    1506   -26206.797 3.4046741e-20 1.6071917e-06 
    1508   -26206.797 3.0642067e-19 1.6071921e-06 
    1510   -26206.797 8.350396e-19 1.6071917e-06 
    1512   -26206.797 1.4319979e-18 1.4693928e-06 
    1514   -26206.797 2.0204729e-18 1.2609069e-06 
    1516   -26206.797 2.0896783e-18 1.7581868e-06 
    1518   -26206.797 2.1204726e-20 1.7581868e-06 
    1520   -26206.797 1.8897179e-19 1.7581868e-06 
    1522   -26206.797 4.9320031e-19 1.5079437e-06 
    1524   -26206.797 8.5804741e-19 1.5079434e-06 
    1526   -26206.797 1.2498351e-18 1.2272884e-06 
    1528   -26206.797 1.6864173e-18 1.6448005e-06 
    1530   -26206.797 1.9248721e-18 1.6448005e-06 
    1532   -26206.797 1.9709487e-18 1.7581823e-06 
    1534   -26206.797 2.1376319e-18 1.7581826e-06 
    1536   -26206.797 2.8317736e-18 1.7420631e-06 
    1538   -26206.797 1.0007695e-19 1.5079385e-06 
    1540   -26206.797 8.9282915e-19 1.5079429e-06 
    1542   -26206.797 2.2526485e-18 1.1820714e-06 
    1544   -26206.797 3.2863211e-18 1.7359019e-06 
    1546   -26206.797  3.19197e-18  1.44741e-06 
    1548   -26206.797 1.596585e-19 1.4474096e-06 
    1550   -26206.797 6.2810365e-19 1.4474094e-06 
    1552   -26206.797 1.2939782e-18 1.2912671e-06 
    1554   -26206.797 1.9769611e-18 1.2609068e-06 
    1556   -26206.797 2.3516453e-18 1.7581868e-06 
    1558   -26206.797 2.2044708e-18 1.6071922e-06 
    1560   -26206.797 2.1764715e-18 1.6448007e-06 
    1562   -26206.797 2.0868417e-19 1.6448007e-06 
    1564   -26206.797 8.1432087e-19 1.6448007e-06 
    1566   -26206.797 1.6378615e-18 1.607192e-06 
    1568   -26206.797 2.4074317e-18 1.4121835e-06 
    1570   -26206.797 2.592792e-18 1.7581824e-06 
    1572   -26206.797 2.3811361e-18 1.2837693e-06 
    1574   -26206.797 1.3180689e-19 1.2837693e-06 
    1576   -26206.797 5.260146e-19 1.2837688e-06 
    1578   -26206.797 1.0629385e-18 1.2609073e-06 
    1580   -26206.797 1.6979416e-18 1.1611025e-06 
    1582   -26206.797 2.0434049e-18 1.7581868e-06 
    1584   -26206.797 2.1633594e-18 1.7581823e-06 
    1586   -26206.797 2.0445307e-18 1.7359027e-06 
    1588   -26206.797 2.1946153e-18 1.6447966e-06 
    1590   -26206.797 3.1718294e-18 1.6242611e-06 
    1592   -26206.797 4.0317564e-18 1.4275341e-06 
    1594   -26206.797 5.1535827e-18 1.4536521e-06 
    1596   -26206.797 6.5587547e-18 1.758183e-06 
    1598   -26206.797 9.1556747e-18 1.5079396e-06 
    1600   -26206.797 1.3168606e-17 1.6448036e-06 
    1602   -26206.797 2.5130019e-18 1.644803e-06 
    1604   -26206.797 8.5076257e-18 1.5079394e-06 
    1606   -26206.797 1.0838959e-17 1.4110669e-06 
    1608   -26206.797 4.9665388e-19 1.4110668e-06 
    1610   -26206.797  1.85273e-18 1.2272868e-06 
    1612   -26206.797 3.4907709e-18 1.227286e-06 
    1614   -26206.797 4.4279309e-18 1.1415028e-06 
    1616   -26206.797 4.2647485e-18 1.4723846e-06 
    1618   -26206.797 1.0636416e-19 1.5079408e-06 
    1620   -26206.797 9.4247902e-19 1.5079428e-06 
    1622   -26206.797 2.4260699e-18 1.2132293e-06 
    1624   -26206.797 3.6549137e-18 1.214924e-06 
    1626   -26206.797 4.0705666e-18 1.4275336e-06 
    1628   -26206.797 4.3003987e-20 1.4275336e-06 
    1630   -26206.797 3.839455e-19 1.4275336e-06 
    1632   -26206.797 1.0297878e-18 1.2272862e-06 
    1634   -26206.797 1.8679941e-18 1.4110669e-06 
    1636   -26206.797 2.7055286e-18 1.4275335e-06 
    1638   -26206.797 2.9145177e-18 1.1669867e-06 
    1640   -26206.797 2.8134814e-18 1.5079376e-06 
    1642   -26206.797 1.8481241e-19 1.5079376e-06 
    1644   -26206.797 7.2677445e-19 1.4121805e-06 
    1646   -26206.797 1.5296578e-18 1.2132266e-06 
    1648   -26206.797 2.4419217e-18 1.0643012e-06 
    1650   -26206.797 2.9477793e-18 1.2272854e-06 
    1652   -26206.797 2.5600705e-18 1.7641054e-06 
    1654   -26206.797 1.416777e-19 1.7641053e-06 
    1656   -26206.797 5.4821963e-19 1.7641053e-06 
    1658   -26206.797 1.135654e-18 1.4275336e-06 
    1660   -26206.797 1.7580641e-18 1.0565374e-06 
    1662   -26206.797 2.2634122e-18 1.4264639e-06 
    1664   -26206.797 2.549023e-18 1.7581796e-06 
    1666   -26206.797 3.8356556e-20 1.7581839e-06 
    1668   -26206.797 3.4128892e-19 1.7581794e-06 
    1670   -26206.797 9.2100454e-19 1.2132266e-06 
    1672   -26206.797 1.5579007e-18 1.3632238e-06 
    1674   -26206.797 2.2331361e-18 1.2008289e-06 
    1676   -26206.797 2.2472391e-18 1.2272849e-06 
    1678   -26206.797 2.0284449e-18 1.4275341e-06 
    1680   -26206.797 1.2450053e-19 1.4275341e-06 
    1682   -26206.797 4.8436843e-19 1.4275341e-06 
    1684   -26206.797 1.0037368e-18 1.4275341e-06 
    1686   -26206.797 1.648466e-18 1.4693945e-06 
    1688   -26206.797 2.0279721e-18 1.4693946e-06 
    1690   -26206.797 2.1531031e-18 1.7581857e-06 
    1692   -26206.797 2.0350966e-18 1.7581815e-06 
    1694   -26206.797 2.1507205e-18 1.6447993e-06 
    1696   -26206.797 3.1847002e-18 1.7359059e-06 
    1698   -26206.797 3.9447016e-18 1.7420649e-06 
    1700   -26206.797 5.6111161e-19 1.4275342e-06 
    1702   -26206.797 2.1802909e-18 1.3960933e-06 
    1704   -26206.797 3.7806515e-18 1.2272846e-06 
    1706   -26206.797 3.6727792e-18 1.442295e-06 
    1708   -26206.797 5.8956321e-20 1.5079391e-06 
    1710   -26206.797 5.2392376e-19 1.5079391e-06 
    1712   -26206.797 1.3750121e-18 1.5079362e-06 
    1714   -26206.797  2.35757e-18 1.4422944e-06 
    1716   -26206.797 2.8607983e-18 1.4693939e-06 
    1718   -26206.797 2.6807803e-18 1.4693935e-06 
    1720   -26206.797 4.4236001e-20 1.4275341e-06 
    1722   -26206.797 3.9618326e-19 1.4275341e-06 
    1724   -26206.797 1.0342636e-18 1.4275341e-06 
    1726   -26206.797 1.8363228e-18 1.1415027e-06 
    1728   -26206.797 2.4942192e-18 1.2272841e-06 
    1730   -26206.797 2.6590321e-18 1.7420639e-06 
    1732   -26206.797 3.2392702e-20 1.7420639e-06 
    1734   -26206.797 2.8511985e-19 1.5079368e-06 
    1736   -26206.797 7.4525624e-19 1.5079368e-06 
    1738   -26206.797 1.3762221e-18 1.213225e-06 
    1740   -26206.797 2.0758166e-18 1.2272842e-06 
    1742   -26206.797 2.2890226e-18 1.1738022e-06 
    1744   -26206.797 2.1357363e-18 1.2912602e-06 
    1746   -26206.797 4.111555e-20 1.6448033e-06 
    1748   -26206.797 3.7003995e-19 1.6448033e-06 
    1750   -26206.797 1.0042475e-18 1.4275336e-06 
    1752   -26206.797 1.7483233e-18 1.742064e-06 
    1754   -26206.797 2.5580942e-18 1.6071919e-06 
    1756   -26206.797 2.5213018e-18 1.3632294e-06 
    1758   -26206.797 8.5691629e-20 1.3632294e-06 
    1760   -26206.797 3.4276653e-19 1.2272841e-06 
    1762   -26206.797 6.9752753e-19 1.2272839e-06 
    1764   -26206.797 1.1807641e-18 1.213226e-06 
    1766   -26206.797 1.6486021e-18 1.260906e-06 
    1768   -26206.797 1.8983984e-18 1.742064e-06 
    1770   -26206.797 1.940713e-18 1.6448033e-06 
    1772   -26206.797 2.021807e-18 1.6448058e-06 
    1774   -26206.797 2.3875969e-18 1.5079367e-06 
    1776   -26206.797 3.1159433e-18 1.5079364e-06 
    1778   -26206.797 1.2494188e-19 1.4264656e-06 
    1780   -26206.797 1.1120641e-18 1.4264657e-06 
    1782   -26206.797 2.6789496e-18 1.2609061e-06 
    1784   -26206.797 3.7019651e-18 1.5079365e-06 
    1786   -26206.797 4.0612381e-20 1.5079368e-06 
    1788   -26206.797 3.6551143e-19 1.5079368e-06 
    1790   -26206.797 9.8391449e-19 1.5079365e-06 
    1792   -26206.797 1.7302694e-18 1.4422927e-06 
    1794   -26206.797 2.3108011e-18 1.4110685e-06 
    1796   -26206.797 2.3671107e-18 1.4264652e-06 
    1798   -26206.797 2.3328438e-18 1.7420604e-06 
    1800   -26206.797 2.4284552e-18 1.6448043e-06 
    1802   -26206.797 2.7464572e-19 1.6448043e-06 
    1804   -26206.797 1.0851676e-18 1.6071922e-06 
    1806   -26206.797 2.1662114e-18 1.4270289e-06 
    1808   -26206.797 3.0163062e-18 1.2132246e-06 
    1810   -26206.797 2.8637808e-18 1.4474139e-06 
    1812   -26206.797 1.0679893e-19 1.4474138e-06 
    1814   -26206.797 4.222184e-19 1.2132246e-06 
    1816   -26206.797 8.8958183e-19 1.2132246e-06 
    1818   -26206.797 1.4793881e-18 1.4536524e-06 
    1820   -26206.797 1.8431551e-18 1.4110687e-06 
    1822   -26206.797 2.1701398e-18 1.7420621e-06 
    1824   -26206.797 2.2438411e-18 1.7420603e-06 
    1826   -26206.797 1.5151246e-19 1.742064e-06 
    1828   -26206.797 5.9606687e-19 1.6071923e-06 
    1830   -26206.797 1.2285553e-18 1.5079376e-06 
    1832   -26206.797 1.879619e-18 1.2272832e-06 
    1834   -26206.797 2.2706636e-18 1.4474138e-06 
    1836   -26206.797 2.0132687e-18 1.447414e-06 
    1838   -26206.797 3.106372e-20 1.4213655e-06 
    1840   -26206.797 2.7957349e-19 1.4213655e-06 
    1842   -26206.797 7.4043039e-19 1.2637564e-06 
    1844   -26206.797 1.3416162e-18 1.2637564e-06 
    1846   -26206.797 1.9153336e-18 1.7359096e-06 
    1848   -26206.797 2.0434474e-18 1.7420641e-06 
    1850   -26206.797 2.1348988e-18 1.7581854e-06 
    1852   -26206.797 4.0985028e-20 1.6513379e-06 
    1854   -26206.797 3.600134e-19 1.6448023e-06 
    1856   -26206.797 9.5118864e-19 1.6071923e-06 
    1858   -26206.797 1.7129546e-18 1.1669877e-06 
    1860   -26206.797 2.1578136e-18 1.7581853e-06 
    1862   -26206.797 2.1571104e-18 1.2838325e-06 
    1864   -26206.797 2.8592603e-20 1.7420606e-06 
    1866   -26206.797 2.5627119e-19 1.7420644e-06 
    1868   -26206.797 6.6777421e-19 1.7420603e-06 
    1870   -26206.797 1.1762232e-18 1.4275327e-06 
    1872   -26206.797 1.7024226e-18 1.4693927e-06 
    1874   -26206.797 2.0420392e-18 1.7581853e-06 
    1876   -26206.797 1.973415e-18 1.7581808e-06 
    1878   -26206.797 4.005646e-20 1.6513379e-06 
    1880   -26206.797 3.6050814e-19 1.6448023e-06 
    1882   -26206.797 9.6071645e-19 1.7359095e-06 
    1884   -26206.797 1.6334497e-18 1.2272831e-06 
    1886   -26206.797 2.165441e-18 1.7581808e-06 
    1888   -26206.797 2.2081038e-18 1.758185e-06 
    1890   -26206.797 7.4500831e-20 1.758185e-06 
    1892   -26206.797 2.8809222e-19 1.4536521e-06 
    1894   -26206.797 6.0350971e-19 1.2132229e-06 
    1896   -26206.797 9.7574882e-19 1.2272831e-06 
    1898   -26206.797 1.3934363e-18 1.2272833e-06 
    1900   -26206.797 1.7204285e-18 1.7359099e-06 
    1902   -26206.797 1.8750609e-18 1.7581827e-06 
    1904   -26206.797 1.9438617e-18 1.6513379e-06 
    1906   -26206.797 2.2062005e-18 1.6513379e-06 
    1908   -26206.797 3.0717204e-18 1.6242565e-06 
    1910   -26206.797 3.6576936e-18 1.3632307e-06 
    1912   -26206.797 4.6656866e-19 1.2304929e-06 
    1914   -26206.797 1.7557963e-18 1.2304917e-06 
    1916   -26206.797 3.2625656e-18 1.260906e-06 
    1918   -26206.797 3.7948053e-18 1.507933e-06 
    1920   -26206.797 5.4474037e-20 1.507933e-06 
    1922   -26206.797 4.9026634e-19 1.507933e-06 
    1924   -26206.797 1.2604229e-18 1.5079348e-06 
    1926   -26206.797 2.2465144e-18 1.2912576e-06 
    1928   -26206.797 2.6480746e-18 1.2912576e-06 
    1930   -26206.797 2.4297229e-18 1.7581828e-06 
    1932   -26206.797 4.0382782e-20 1.758185e-06 
    1934   -26206.797 3.6344504e-19 1.2132229e-06 
    1936   -26206.797 9.2605637e-19 1.2132229e-06 
    1938   -26206.797 1.5846639e-18 1.3632257e-06 
    1940   -26206.797 2.2637987e-18 1.7420641e-06 
    1942   -26206.797 2.4785063e-18 1.6071926e-06 
    1944   -26206.797 2.3809532e-18 1.6071927e-06 
    1946   -26206.797 1.7907359e-19 1.6071926e-06 
    1948   -26206.797 6.9553727e-19 1.5079348e-06 
    1950   -26206.797 1.3868164e-18 1.5079366e-06 
    1952   -26206.797 2.1514213e-18 1.1469078e-06 
    1954   -26206.797 2.4246671e-18 1.4536523e-06 
    1956   -26206.797 2.1982998e-18 1.6071924e-06 
    1958   -26206.797 2.0313433e-18 1.7359095e-06 
    1960   -26206.797 2.0205684e-19 1.7359102e-06 
    1962   -26206.797 7.5602187e-19 1.6513378e-06 
    1964   -26206.797 1.4718837e-18 1.2132234e-06 
    1966   -26206.797 2.0807441e-18 1.7420641e-06 
    1968   -26206.797 2.4548739e-18 1.7581804e-06 
    1970   -26206.797 2.3640714e-18 1.5079366e-06 
    1972   -26206.797  1.37992e-19 1.5079366e-06 
    1974   -26206.797 5.3721122e-19 1.5079366e-06 
    1976   -26206.797 1.1131279e-18 1.507934e-06 
    1978   -26206.797 1.7758501e-18 9.9689111e-07 
    1980   -26206.797 2.132684e-18 1.7420621e-06 
    1982   -26206.797 2.1463996e-18 1.7581825e-06 
    1984   -26206.797 2.0988787e-18 1.7581824e-06 
    1986   -26206.797 1.8038342e-19 1.7581824e-06 
    1988   -26206.797 7.0158438e-19 1.6448037e-06 
    1990   -26206.797 1.3772385e-18 1.2637547e-06 
    1992   -26206.797 2.1138441e-18 1.4474152e-06 
    1994   -26206.797 2.649301e-18 1.7420642e-06 
    1996   -26206.797 2.4055886e-20 1.7420642e-06 
    1998   -26206.797 2.1650297e-19 1.7420641e-06 
    2000   -26206.797 5.8245656e-19 1.4264664e-06 
    2002   -26206.797 1.024245e-18 1.4474148e-06 
    2004   -26206.797 1.442422e-18 1.4474148e-06 
    2006   -26206.797 1.6932481e-18 1.2609061e-06 
    2008   -26206.797 1.7852638e-18 1.7581845e-06 
    2010   -26206.797 1.9263745e-18 1.6513378e-06 
    2012   -26206.797 2.0219193e-18 1.7420662e-06 
    2014   -26206.797 2.6885168e-18 1.7420609e-06 
    2016   -26206.797 4.0006281e-18 1.4110721e-06 
    2018   -26206.797 4.6764473e-19 1.4110719e-06 
    2020   -26206.797 1.8149381e-18 1.624256e-06 
    2022   -26206.797 3.0570921e-18 1.624256e-06 
    2024   -26206.797 3.4897938e-18 1.7581844e-06 
    2026   -26206.797 1.5391263e-19 1.7581844e-06 
    2028   -26206.797 6.021876e-19 1.4474147e-06 
    2030   -26206.797 1.2054878e-18 1.2132219e-06 
    2032   -26206.797 1.8522075e-18 1.2132214e-06 
    2034   -26206.797 2.3120538e-18 1.4264664e-06 
    2036   -26206.797 2.3204723e-18 1.4264668e-06 
    2038   -26206.797 2.3428778e-18 1.7581801e-06 
    2040   -26206.797 2.4254612e-19 1.7581801e-06 
    2042   -26206.797 9.3947959e-19 1.4270299e-06 
    2044   -26206.797 1.8571334e-18 1.4270299e-06 
    2046   -26206.797 2.7472953e-18 1.442298e-06 
    2048   -26206.797 2.872954e-18 1.4693924e-06 
    2050   -26206.797 2.716742e-20 1.4693924e-06 
    2052   -26206.797 2.4141038e-19 1.4275325e-06 
    2054   -26206.797 6.5000974e-19 1.4275325e-06 
    2056   -26206.797 1.1264543e-18 1.4275325e-06 
    2058   -26206.797 1.7090351e-18 1.1415012e-06 
    2060   -26206.797 2.1101429e-18 1.7420608e-06 
    2062   -26206.797 2.0479085e-18 1.7581843e-06 
    2064   -26206.797 2.0496907e-18 1.758184e-06 
    2066   -26206.797 2.5789346e-18 1.6448035e-06 
    2068   -26206.797 3.3044392e-18 1.453653e-06 
    2070   -26206.797 4.421354e-19 1.4536532e-06 
    2072   -26206.797 1.7232111e-18 1.4536531e-06 
    2074   -26206.797 3.1606093e-18 1.2008279e-06 
    2076   -26206.797 3.5139796e-18 1.2912547e-06 
    2078   -26206.797 1.1955944e-19 1.2912547e-06 
    2080   -26206.797 4.7757254e-19 1.2912547e-06 
    2082   -26206.797 9.9319152e-19 1.2912547e-06 
    2084   -26206.797 1.6528129e-18 1.7420646e-06 
    2086   -26206.797 2.3266276e-18 1.442287e-06 
    2088   -26206.797 2.3546221e-18 1.7641065e-06 
    2090   -26206.797 2.200186e-18 1.7641067e-06 
    2092   -26206.797 2.6230256e-18 1.735911e-06 
    2094   -26206.797 8.633079e-20 1.7359111e-06 
    2096   -26206.797 7.6807728e-19 1.6513382e-06 
    2098   -26206.797 1.9433182e-18 1.6448108e-06 
    2100   -26206.797 2.8615067e-18 1.4693928e-06 
    2102   -26206.797 2.7784318e-18 1.4693928e-06 
    2104   -26206.797 1.0237766e-19 1.4693928e-06 
    2106   -26206.797 4.0698154e-19 1.4693923e-06 
    2108   -26206.797 8.4576996e-19 1.2149238e-06 
    2110   -26206.797 1.3533679e-18 9.9689306e-07 
    2112   -26206.797 1.7496741e-18 1.6071932e-06 
    2114   -26206.797 1.918505e-18 1.7420646e-06 
    2116   -26206.797 2.1109575e-18 1.7581824e-06 
    2118   -26206.797 2.1620372e-18 1.6513376e-06 
    2120   -26206.797 2.8624775e-18 1.6448107e-06 
    2122   -26206.797 3.7836887e-18 1.6242542e-06 
    2124   -26206.797 5.0257625e-19 1.6242542e-06 
    2126   -26206.797 1.8804927e-18 1.624249e-06 
    2128   -26206.797 3.0450707e-18 1.2272804e-06 
    2130   -26206.797 3.4287605e-18 1.4474166e-06 
    2132   -26206.797 5.6241925e-20 1.7581825e-06 
    2134   -26206.797 5.0617734e-19 1.7581824e-06 
    2136   -26206.797 1.3599784e-18 1.5079341e-06 
    2138   -26206.797 2.2596947e-18 1.1415016e-06 
    2140   -26206.797 2.813471e-18 1.7420628e-06 
    2142   -26206.797 2.7139963e-18 1.6513375e-06 
    2144   -26206.797 1.0927921e-19 1.6513375e-06 
    2146   -26206.797 4.3001236e-19 1.4110728e-06 
    2148   -26206.797 9.1482325e-19 1.2912553e-06 
    2150   -26206.797 1.4861307e-18 1.0565378e-06 
    2152   -26206.797 1.9311402e-18 1.200828e-06 
    2154   -26206.797 2.1532397e-18 1.7581842e-06 
    2156   -26206.797 2.0647316e-18 1.7641066e-06 
    2158   -26206.797 2.3441767e-18 1.7420629e-06 
    2160   -26206.797 3.1016831e-18 1.6513367e-06 
    2162   -26206.797 3.973635e-19 1.624249e-06 
    2164   -26206.797 1.513136e-18 1.624249e-06 
    2166   -26206.797 2.867492e-18 1.4264676e-06 
    2168   -26206.797 3.4520716e-18 1.742065e-06 
    2170   -26206.797 3.3075553e-20 1.742065e-06 
    2172   -26206.797 2.9767998e-19 1.742063e-06 
    2174   -26206.797 8.1113452e-19 1.6071934e-06 
    2176   -26206.797 1.4108102e-18 1.1669911e-06 
    2178   -26206.797 1.9703501e-18 1.2132194e-06 
    2180   -26206.797 2.2255526e-18 1.4536537e-06 
    2182   -26206.797 2.2522087e-18 1.4536532e-06 
    2184   -26206.797 4.5040031e-20 1.4422858e-06 
    2186   -26206.797 4.0396333e-19 1.4422858e-06 
    2188   -26206.797 1.0855883e-18 1.4422858e-06 
    2190   -26206.797 1.9165561e-18 1.4422858e-06 
    2192   -26206.797 2.4779424e-18 1.7420628e-06 
    2194   -26206.797 2.1961384e-18 1.7420628e-06 
    2196   -26206.797 8.6384056e-20 1.7420628e-06 
    2198   -26206.797 3.4553622e-19 1.6071936e-06 
    2200   -26206.797 7.4238348e-19 1.1415028e-06 
    2202   -26206.797 1.2285723e-18 1.214923e-06 
    2204   -26206.797 1.7257866e-18 1.2609051e-06 
    2206   -26206.797 1.9681112e-18 1.5079373e-06 
    2208   -26206.797 2.0001998e-18 1.7420608e-06 
    2210   -26206.797 2.2027017e-18 1.7420628e-06 
    2212   -26206.797 7.2059116e-20 1.6448111e-06 
    2214   -26206.797 6.4321126e-19 1.6448111e-06 
    2216   -26206.797 1.652149e-18 1.6242479e-06 
    2218   -26206.797 2.6377108e-18 1.7359112e-06 
    2220   -26206.797 2.9621341e-18 1.5079347e-06 
    2222   -26206.797 8.3250246e-20 1.5079347e-06 
    2224   -26206.797 3.3289593e-19 1.5079347e-06 
    2226   -26206.797 7.2312604e-19 1.5079347e-06 
    2228   -26206.797 1.2483074e-18 1.2272791e-06 
    2230   -26206.797 1.642537e-18 1.4121791e-06 
    2232   -26206.797 2.0033081e-18 1.4474161e-06 
    2234   -26206.797 2.0165114e-18 1.651338e-06 
    2236   -26206.797 1.9428886e-18 1.7359117e-06 
    2238   -26206.797 2.2320771e-18 1.6448111e-06 
    2240   -26206.797 3.0905656e-18 1.5696791e-06 
    2242   -26206.797 3.7442744e-18 1.7581849e-06 
    2244   -26206.797 1.3296304e-19 1.427031e-06 
    2246   -26206.797 1.1966675e-18 1.427031e-06 
    2248   -26206.797 2.9755206e-18 1.2272792e-06 
    2250   -26206.797 3.9066124e-18 1.2736311e-06 
    2252   -26206.797 3.6333685e-18 1.4422864e-06 
    2254   -26206.797 2.5842052e-19 1.4422864e-06 
    2256   -26206.797 1.031089e-18 1.4422864e-06 
    2258   -26206.797 2.0122694e-18 1.4422905e-06 
    2260   -26206.797 2.8990037e-18 1.2272789e-06 
    2262   -26206.797 3.0458301e-18 1.260905e-06 
    2264   -26206.797 1.0859355e-19 1.2272785e-06 
    2266   -26206.797 4.2233219e-19 1.0929113e-06 
    2268   -26206.797 8.9520991e-19 1.1415023e-06 
    2270   -26206.797 1.508529e-18 1.4474173e-06 
    2272   -26206.797 2.1972525e-18 1.4474173e-06 
    2274   -26206.797   2.5298e-18 1.5079356e-06 
    2276   -26206.797 2.4964347e-18 1.5079356e-06 
    2278   -26206.797 1.6934225e-19 1.5079356e-06 
    2280   -26206.797 6.685301e-19 1.5079356e-06 
    2282   -26206.797 1.4024456e-18 1.5079351e-06 
    2284   -26206.797 2.2293597e-18 1.2149231e-06 
    2286   -26206.797 2.5700971e-18 1.2609053e-06 
    2288   -26206.797 2.279905e-18 1.4474173e-06 
    2290   -26206.797 1.1257735e-19 1.4474172e-06 
    2292   -26206.797 4.3830256e-19 1.4474167e-06 
    2294   -26206.797 8.9463611e-19 1.2272781e-06 
    2296   -26206.797 1.4372739e-18 1.2008288e-06 
    2298   -26206.797 2.0880042e-18 1.4422829e-06 
    2300   -26206.797 2.2262966e-18 1.6071939e-06 
    2302   -26206.797 2.0523193e-18 1.6513387e-06 
    2304   -26206.797 2.2919222e-18 1.5079373e-06 
    2306   -26206.797 2.8640366e-18 1.4275325e-06 
    2308   -26206.797 3.7544568e-18 1.4780318e-06 
    2310   -26206.797 5.4865651e-19 1.4780318e-06 
    2312   -26206.797 2.063653e-18 1.2838377e-06 
    2314   -26206.797 3.5843868e-18 1.7420662e-06 
    2316   -26206.797 4.0129967e-18 1.4422852e-06 
    2318   -26206.797 1.4194669e-19 1.4422852e-06 
    2320   -26206.797 5.6075718e-19 1.4422852e-06 
    2322   -26206.797 1.2004906e-18 1.4422852e-06 
    2324   -26206.797 1.9640052e-18 1.1415025e-06 
    2326   -26206.797 2.4741113e-18 1.2008268e-06 
    2328   -26206.797 2.5467321e-18 1.7359135e-06 
    2330   -26206.797 4.5660349e-20 1.7359136e-06 
    2332   -26206.797 4.0953516e-19 1.7359135e-06 
    2334   -26206.797 1.0877721e-18 1.6448113e-06 
    2336   -26206.797 1.8154608e-18 1.4275307e-06 
    2338   -26206.797 2.5064219e-18 1.2132173e-06 
    2340   -26206.797 2.4721302e-18 1.4110738e-06 
    2342   -26206.797 2.8117033e-20 1.2609045e-06 
    2344   -26206.797 2.530533e-19 1.2272782e-06 
    2346   -26206.797 6.8680017e-19 1.2272781e-06 
    2348   -26206.797 1.1882484e-18 1.2132173e-06 
    2350   -26206.797 1.8140268e-18 1.7581801e-06 
    2352   -26206.797 2.153412e-18 1.7581803e-06 
    2354   -26206.797 2.2005379e-18 1.735914e-06 
    2356   -26206.797 2.1641914e-18 1.735914e-06 
    2358   -26206.797 2.0082949e-19 1.735914e-06 
    2360   -26206.797 7.8499134e-19 1.6448138e-06 
    2362   -26206.797 1.6617745e-18 1.5079365e-06 
    2364   -26206.797 2.5430257e-18 1.6071939e-06 
    2366   -26206.797 2.6105685e-18 1.213217e-06 
    2368   -26206.797  2.67042e-20 1.7581825e-06 
    2370   -26206.797 2.3933055e-19 1.7581825e-06 
    2372   -26206.797 6.4112185e-19 1.4693923e-06 
    2374   -26206.797 1.1107878e-18 1.2149235e-06 
    2376   -26206.797 1.6481586e-18 1.2272778e-06 
    2378   -26206.797 1.8228827e-18 1.7420692e-06 
    2380   -26206.797 2.0255294e-18 1.4264681e-06 
    2382   -26206.797 2.1849565e-18 1.5079368e-06 
    2384   -26206.797 1.726804e-19 1.5079368e-06 
    2386   -26206.797 6.7319611e-19 1.5079368e-06 
    2388   -26206.797 1.3348472e-18 1.4275308e-06 
    2390   -26206.797 2.0820775e-18 1.4110744e-06 
    2392   -26206.797 2.3401767e-18 1.7581802e-06 
    2394   -26206.797 2.2128503e-20 1.7581802e-06 
    2396   -26206.797 1.9795744e-19 1.7581802e-06 
    2398   -26206.797 5.3316659e-19 1.7420692e-06 
    2400   -26206.797 9.2310495e-19 1.213217e-06 
    2402   -26206.797 1.4150568e-18 1.2258593e-06 
    2404   -26206.797 1.7066017e-18 1.4264676e-06 
    2406   -26206.797 1.932761e-18 1.6448137e-06 
    2408   -26206.797 1.9601637e-18 1.7641078e-06 
    2410   -26206.797 2.1132445e-18 1.7581826e-06 
    2412   -26206.797 2.5032034e-18 1.7420692e-06 
    2414   -26206.797 3.3609595e-18 1.2304936e-06 
    2416   -26206.797 4.1961912e-18 1.4264685e-06 
    2418   -26206.797 6.3567966e-19 1.4264685e-06 
    2420   -26206.797 2.4276755e-18 1.4270328e-06 
    2422   -26206.797 3.7291907e-18 1.651339e-06 
    2424   -26206.797 3.7309792e-18 1.4422874e-06 
    2426   -26206.797 2.0167185e-19 1.4422874e-06 
    2428   -26206.797 8.0576929e-19 1.4422875e-06 
    2430   -26206.797 1.7016538e-18 1.4422874e-06 
    2432   -26206.797 2.6408993e-18 1.2609033e-06 
    2434   -26206.797 2.9615209e-18 1.7420639e-06 
    2436   -26206.797 1.0315873e-19 1.7420639e-06 
    2438   -26206.797 4.0332081e-19 1.2272773e-06 
    2440   -26206.797 8.617354e-19 1.227277e-06 
    2442   -26206.797 1.4868821e-18 1.2272765e-06 
    2444   -26206.797 1.9701502e-18 1.507937e-06 
    2446   -26206.797 2.0448267e-18 1.5079373e-06 
    2448   -26206.797 2.1944156e-18 1.5079347e-06 
    2450   -26206.797 2.4037339e-18 1.6448154e-06 
    2452   -26206.797 2.8304336e-18 1.6242419e-06 
    2454   -26206.797 3.8612241e-18 1.6513399e-06 
    2456   -26206.797 5.5644894e-19 1.4780334e-06 
    2458   -26206.797 2.1099175e-18 1.4780325e-06 
    2460   -26206.797 3.7066021e-18 1.2132145e-06 
    2462   -26206.797 3.852116e-18 1.2609042e-06 
    2464   -26206.797 1.5470742e-19 1.2609041e-06 
    2466   -26206.797 6.0504478e-19 1.2609037e-06 
    2468   -26206.797 1.282318e-18 1.2609037e-06 
    2470   -26206.797 2.1123251e-18 1.0565377e-06 
    2472   -26206.797 2.6015696e-18 1.5079368e-06 
    2474   -26206.797 2.3382201e-18  1.65134e-06 
    2476   -26206.797 2.2553987e-18 1.6513398e-06 
    2478   -26206.797 2.5650482e-18 1.7359154e-06 
    2480   -26206.797 3.7054731e-18 1.4723904e-06 
    2482   -26206.797 1.4678804e-19 1.5079347e-06 
    2484   -26206.797 1.2752377e-18 1.4422816e-06 
    2486   -26206.797 2.9439649e-18 1.0565382e-06 
    2488   -26206.797 3.8512583e-18 1.2272764e-06 
    2490   -26206.797 3.900859e-20 1.4110755e-06 
    2492   -26206.797 3.5107731e-19 1.4110754e-06 
    2494   -26206.797 9.4637066e-19 1.4110749e-06 
    2496   -26206.797 1.6632555e-18 1.4121834e-06 
    2498   -26206.797 2.2771993e-18 1.6071944e-06 
    2500   -26206.797 2.5359547e-18 1.7420656e-06 
    2502   -26206.797 2.5126456e-18 1.7420638e-06 
    2504   -26206.797 6.3819906e-20 1.7420616e-06 
    2506   -26206.797 5.6865165e-19 1.4723896e-06 
    2508   -26206.797 1.4959888e-18 1.4723896e-06 
    2510   -26206.797 2.5964887e-18 1.2132141e-06 
    2512   -26206.797 3.0550349e-18 1.5079388e-06 
    2514   -26206.797 2.5383979e-20 1.6071946e-06 
    2516   -26206.797 2.2845581e-19 1.6071946e-06 
    2518   -26206.797 5.9682818e-19 1.2272752e-06 
    2520   -26206.797 1.076637e-18 1.2272753e-06 
    2522   -26206.797 1.6160037e-18 1.4474203e-06 
    2524   -26206.797 1.9389655e-18 1.7420634e-06 
    2526   -26206.797 2.0519659e-18 1.7420636e-06 
    2528   -26206.797 2.1281374e-18 1.7581824e-06 
    2530   -26206.797 1.8146477e-19 1.7581824e-06 
    2532   -26206.797 7.0050177e-19 1.6448168e-06 
    2534   -26206.797 1.4633682e-18 1.6071943e-06 
    2536   -26206.797 2.2097854e-18 1.7420633e-06 
    2538   -26206.797 2.4497332e-18 1.5696811e-06 
    2540   -26206.797 2.0667798e-20 1.5696811e-06 
    2542   -26206.797 1.8601019e-19 1.5696811e-06 
    2544   -26206.797 5.1147044e-19 1.5696811e-06 
    2546   -26206.797 9.6163507e-19 1.5696787e-06 
    2548   -26206.797 1.3939205e-18 1.6071943e-06 
    2550   -26206.797 1.6505025e-18 1.6071944e-06 
    2552   -26206.797 1.8665521e-18 1.7581841e-06 
    2554   -26206.797 1.9888256e-18 1.7581821e-06 
    2556   -26206.797 2.2086768e-18 1.6448167e-06 
    2558   -26206.797 2.7417096e-18 1.5696786e-06 
    2560   -26206.797 3.6597609e-18 1.5696786e-06 
    2562   -26206.797 4.9943183e-19 1.5696786e-06 
    2564   -26206.797 1.931516e-18 1.4474213e-06 
    2566   -26206.797 3.3615848e-18 1.2272752e-06 
    2568   -26206.797 3.6063334e-18 1.7581798e-06 
    2570   -26206.797 1.4735464e-19 1.7581798e-06 
    2572   -26206.797 5.8345665e-19 1.2912584e-06 
    2574   -26206.797 1.2435614e-18 1.2912559e-06 
    2576   -26206.797 2.0154966e-18 1.213213e-06 
    2578   -26206.797 2.4243267e-18 1.6071946e-06 
    2580   -26206.797 2.3204869e-18 1.6071945e-06 
    2582   -26206.797 2.3451184e-18 1.7359155e-06 
    2584   -26206.797 2.7129027e-18 1.5696815e-06 
    2586   -26206.797 3.4574496e-18 1.6448179e-06 
    2588   -26206.797 4.700076e-18 1.3632379e-06 
    2590   -26206.797 6.1952885e-19 1.2912537e-06 
    2592   -26206.797 2.3003743e-18 1.0922149e-06 
    2594   -26206.797 3.7302693e-18 1.227275e-06 
    2596   -26206.797 3.9672317e-18 1.6071947e-06 
    2598   -26206.797 1.8488725e-19 1.6071946e-06 
    2600   -26206.797 7.2088743e-19 1.4110762e-06 
    2602   -26206.797 1.4556204e-18 1.213212e-06 
    2604   -26206.797 2.2618471e-18 1.2132122e-06 
    2606   -26206.797 2.7078269e-18 1.4474219e-06 
    2608   -26206.797 2.503153e-18 1.758182e-06 
    2610   -26206.797 2.5564438e-18 1.6513411e-06 
    2612   -26206.797 3.0801525e-18 1.7641083e-06 
    2614   -26206.797 4.5581924e-18 1.5079373e-06 
    2616   -26206.797 5.9578406e-18 1.4780362e-06 
    2618   -26206.797 8.2889358e-19 1.4780352e-06 
    2620   -26206.797 2.9430451e-18 1.2132127e-06 
    2622   -26206.797 4.9880382e-18 1.4264684e-06 
    2624   -26206.797 4.3850323e-20 1.4264684e-06 
    2626   -26206.797 3.946529e-19 1.4264684e-06 
    2628   -26206.797 1.0513514e-18 1.2272742e-06 
    2630   -26206.797 1.8652599e-18 9.6854792e-07 
    2632   -26206.797 2.5433433e-18 1.7581796e-06 
    2634   -26206.797 2.759685e-18 1.7581817e-06 
    2636   -26206.797 2.8134114e-18 1.6071944e-06 
    2638   -26206.797 8.3739871e-20 1.4474216e-06 
    2640   -26206.797 7.4618139e-19 1.2912499e-06 
    2642   -26206.797 1.9903091e-18 1.5696788e-06 
    2644   -26206.797 3.2835254e-18 1.6071944e-06 
    2646   -26206.797 3.4716472e-18 1.6071945e-06 
    2648   -26206.797 9.7839303e-20 1.6071945e-06 
    2650   -26206.797 3.9091551e-19 1.6071944e-06 
    2652   -26206.797 8.0431427e-19 1.5079373e-06 
    2654   -26206.797 1.3988429e-18 1.056538e-06 
    2656   -26206.797 1.9986012e-18 1.2132109e-06 
    2658   -26206.797 2.2173592e-18 1.7581819e-06 
    2660   -26206.797 2.3120419e-18 1.4723899e-06 
    2662   -26206.797 5.0447701e-20 1.6071944e-06 
    2664   -26206.797 4.5402931e-19 1.6071943e-06 
    2666   -26206.797 1.2019719e-18 1.4474216e-06 
    2668   -26206.797 1.9313349e-18 1.6513408e-06 
    2670   -26206.797 2.4578896e-18 1.6513408e-06 
    2672   -26206.797 1.6994889e-20 1.7581842e-06 
    2674   -26206.797  1.52954e-19 1.7581842e-06 
    2676   -26206.797 4.1853426e-19 1.569679e-06 
    2678   -26206.797 7.8242961e-19 1.569679e-06 
    2680   -26206.797 1.2385547e-18 1.227273e-06 
    2682   -26206.797 1.6184579e-18 1.4110774e-06 
    2684   -26206.797 1.9180633e-18 1.6071944e-06 
    2686   -26206.797 1.9355473e-18 1.651341e-06 
    2688   -26206.797 1.4451274e-19 1.651341e-06 
    2690   -26206.797 5.716261e-19 1.6071944e-06 
    2692   -26206.797 1.1734008e-18 1.4264688e-06 
    2694   -26206.797 1.8091977e-18 1.447422e-06 
    2696   -26206.797 2.2268685e-18 1.2272729e-06 
    2698   -26206.797 1.7705554e-20 1.7581819e-06 
    2700   -26206.797 1.5880781e-19 1.7581819e-06 
    2702   -26206.797 4.2334012e-19 1.569679e-06 
    2704   -26206.797 7.6441817e-19 1.569679e-06 
    2706   -26206.797 1.1596128e-18 1.4474215e-06 
    2708   -26206.797 1.5418152e-18 1.7420642e-06 
    2710   -26206.797 1.589732e-18 1.7420662e-06 
    2712   -26206.797 1.6952588e-18 1.6071948e-06 
    2714   -26206.797 1.9099043e-18 1.7581796e-06 
    2716   -26206.797 2.388022e-18 1.758182e-06 
    2718   -26206.797 8.4166058e-20 1.7581795e-06 
    2720   -26206.797 7.431922e-19 1.6448199e-06 
    2722   -26206.797 1.9068659e-18 1.4474222e-06 
    2724   -26206.797 2.9145741e-18 1.5079372e-06 
    2726   -26206.797 3.0409237e-18 1.4422803e-06 
    2728   -26206.797 1.2309184e-19 1.4422803e-06 
    2730   -26206.797 4.697542e-19 1.4422803e-06 
    2732   -26206.797 9.4562595e-19 1.4422803e-06 
    2734   -26206.797 1.5213978e-18 1.2132104e-06 
    2736   -26206.797 2.0144601e-18 1.7581796e-06 
    2738   -26206.797 2.1472776e-18 1.2637539e-06 
    2740   -26206.797 2.009636e-18 1.4474221e-06 
    2742   -26206.797 1.5612228e-19 1.4474221e-06 
    2744   -26206.797 6.1765431e-19 1.4474216e-06 
    2746   -26206.797 1.3058276e-18 1.4270333e-06 
    2748   -26206.797 1.9843544e-18 1.4270333e-06 
    2750   -26206.797 2.3778171e-18 1.2008329e-06 
    2752   -26206.797 2.1768462e-18 1.7581815e-06 
    2754   -26206.797 1.107277e-19 1.7581815e-06 
    2756   -26206.797 4.319588e-19 1.2132113e-06 
    2758   -26206.797 8.7366875e-19 1.2272725e-06 
    2760   -26206.797 1.457853e-18 1.2132104e-06 
    2762   -26206.797 1.8953402e-18 1.0587807e-06 
    2764   -26206.797 2.0314864e-18 1.1611145e-06 
    2766   -26206.797 2.0656656e-18 1.6448182e-06 
    2768   -26206.797 1.3486864e-19 1.6448182e-06 
    2770   -26206.797 5.2256224e-19 1.6448182e-06 
    2772   -26206.797 1.0703437e-18 1.2272723e-06 
    2774   -26206.797 1.5948706e-18 1.5079328e-06 
    2776   -26206.797 2.0918224e-18 1.5079375e-06 
    2778   -26206.797 2.121018e-18 1.7420621e-06 
    2780   -26206.797 9.2342936e-20 1.7420621e-06 
    2782   -26206.797 3.6049197e-19 1.7420639e-06 
    2784   -26206.797 7.4287207e-19 1.283763e-06 
    2786   -26206.797 1.1690073e-18 1.283763e-06 
    2788   -26206.797 1.5979574e-18 1.2272722e-06 
    2790   -26206.797 1.7939589e-18 1.6071951e-06 
    2792   -26206.797 1.8203772e-18 1.7581815e-06 
    2794   -26206.797 1.9534213e-18 1.7420639e-06 
    2796   -26206.797 2.310088e-18 1.4780375e-06 
    2798   -26206.797 3.2357681e-18 1.651341e-06 
    2800   -26206.797 4.3531161e-19 1.6513408e-06 
    2802   -26206.797 1.6604978e-18 1.6242423e-06 
    2804   -26206.797 2.9966622e-18 1.2272712e-06 
    2806   -26206.797 3.3611536e-18 1.4693936e-06 
    2808   -26206.797 1.2042603e-19 1.4693932e-06 
    2810   -26206.797 4.8170409e-19 1.4270328e-06 
    2812   -26206.797 1.0285741e-18 1.4270327e-06 
    2814   -26206.797 1.6914186e-18 1.4270327e-06 
    2816   -26206.797 2.3082348e-18 1.7581815e-06 
    2818   -26206.797 2.410449e-18 1.5696801e-06 
    2820   -26206.797 2.2523314e-18 1.4474232e-06 
    2822   -26206.797 1.6869703e-19 1.4474228e-06 
    2824   -26206.797 6.6598268e-19 1.4474223e-06 
    2826   -26206.797 1.422778e-18 1.4264697e-06 
    2828   -26206.797 2.1936436e-18 1.2609012e-06 
    2830   -26206.797 2.6768342e-18 1.7581815e-06 
    2832   -26206.797 2.4667973e-18 1.7581794e-06 
    2834   -26206.797 3.8854988e-20 1.6448171e-06 
    2836   -26206.797 3.4799386e-19 1.6448171e-06 
    2838   -26206.797 9.2799632e-19 1.4780381e-06 
    2840   -26206.797 1.6112142e-18 1.2008351e-06 
    2842   -26206.797 2.2002663e-18 1.4270339e-06 
    2844   -26206.797 2.6000354e-18 1.6071953e-06 
    2846   -26206.797 2.3442285e-18 1.7420598e-06 
    2848   -26206.797 1.606963e-19 1.6071955e-06 
    2850   -26206.797 6.1318619e-19 1.6513408e-06 
    2852   -26206.797 1.2188671e-18 1.651341e-06 
    2854   -26206.797 1.7299955e-18 1.2912549e-06 
    2856   -26206.797 2.0087444e-18 1.4693936e-06 
    2858   -26206.797 2.079001e-18 1.5696803e-06 
    2860   -26206.797 3.0538649e-20 1.644817e-06 
    2862   -26206.797 2.7326369e-19 1.644817e-06 
    2864   -26206.797 7.1587734e-19 1.644817e-06 
    2866   -26206.797 1.2931936e-18 1.5696803e-06 
    2868   -26206.797 1.8259453e-18 1.3632392e-06 
    2870   -26206.797 2.0445945e-18 1.6513411e-06 
    2872   -26206.797 2.4576979e-20 1.6513409e-06 
    2874   -26206.797 2.2026558e-19 1.6513409e-06 
    2876   -26206.797 5.8088471e-19 1.6513406e-06 
    2878   -26206.797 1.0374317e-18 1.2132094e-06 
    2880   -26206.797  1.53351e-18 1.6071955e-06 
    2882   -26206.797 1.8317448e-18 1.7420618e-06 
    2884   -26206.797 1.758661e-18 1.7581835e-06 
    2886   -26206.797 2.0057489e-18 1.644817e-06 
    2888   -26206.797 2.0844461e-18 1.6448195e-06 
    2890   -26206.797 2.6931485e-18 1.5079408e-06 
    2892   -26206.797 3.5276312e-18 1.7420661e-06 
    2894   -26206.797 4.5103389e-18 1.2912524e-06 
    2896   -26206.797 5.4792641e-18 1.4474247e-06 
    2898   -26206.797 8.9228478e-19 1.4474248e-06 
    2900   -26206.797 3.2028346e-18 1.4275281e-06 
    2902   -26206.797 4.5881854e-18 1.2008293e-06 
    2904   -26206.797 4.3389401e-18 1.5696809e-06 
    2906   -26206.797 3.4038112e-19 1.5696809e-06 
    2908   -26206.797 1.3408199e-18 1.3632496e-06 
    2910   -26206.797 2.635573e-18 1.2201418e-06 
    2912   -26206.797 3.6347195e-18 1.7581814e-06 
    2914   -26206.797 3.380588e-18 1.469394e-06 
    2916   -26206.797 1.6131307e-19 1.469394e-06 
    2918   -26206.797 6.1074523e-19 1.4693934e-06 
    2920   -26206.797 1.275052e-18 1.2272703e-06 
    2922   -26206.797 2.1215323e-18 1.7581791e-06 
    2924   -26206.797 2.8395607e-18 1.0565386e-06 
    2926   -26206.797 2.6682276e-20 1.6513397e-06 
    2928   -26206.797 2.4014048e-19 1.6513397e-06 
    2930   -26206.797 6.476371e-19 1.2912538e-06 
    2932   -26206.797 1.2176541e-18 1.2637521e-06 
    2934   -26206.797 1.8390513e-18 1.0176628e-06 
    2936   -26206.797 2.0693746e-18 1.7581814e-06 
    2938   -26206.797 2.1424165e-18 1.758179e-06 
    2940   -26206.797 2.2128116e-18 1.6448183e-06 
    2942   -26206.797 2.5920032e-18 1.6513394e-06 
    2944   -26206.797 3.2495526e-18 1.5079353e-06 
    2946   -26206.797 1.4083031e-19  1.73592e-06 
    2948   -26206.797 1.2639998e-18 1.2912534e-06 
    2950   -26206.797 2.9792881e-18 1.2132089e-06 
    2952   -26206.797 4.1248041e-18 1.2837615e-06 
    2954   -26206.797 4.2141365e-20 1.758179e-06 
    2956   -26206.797 3.7554645e-19 1.2837609e-06 
    2958   -26206.797 9.9450481e-19 1.2837607e-06 
    2960   -26206.797 1.8132288e-18 1.2637521e-06 
    2962   -26206.797 2.5063657e-18 1.5079351e-06 
    2964   -26206.797 2.6475602e-18 1.6071957e-06 
    2966   -26206.797 2.6092229e-18 1.6071957e-06 
    2968   -26206.797 1.6333199e-19 1.6071957e-06 
    2970   -26206.797 6.4274953e-19 1.4422843e-06 
    2972   -26206.797 1.3216753e-18 1.4422842e-06 
    2974   -26206.797 2.1298084e-18 1.7581811e-06 
    2976   -26206.797 2.5160077e-18 1.7581811e-06 
    2978   -26206.797 2.302828e-18 1.213209e-06 
    2980   -26206.797 1.070879e-19 1.213209e-06 
    2982   -26206.797 4.2658148e-19 1.2272698e-06 
    2984   -26206.797 8.866741e-19 1.2272696e-06 
    2986   -26206.797 1.4186657e-18 1.2609005e-06 
    2988   -26206.797 1.9905881e-18 1.758179e-06 
    2990   -26206.797 2.2552065e-18 1.6071958e-06 
    2992   -26206.797 2.1985544e-18 1.7359194e-06 
    2994   -26206.797 1.4882439e-19 1.7359193e-06 
    2996   -26206.797 5.8078902e-19 1.6513399e-06 
    2998   -26206.797 1.200237e-18 1.1430918e-06 
    3000   -26206.797 1.9135842e-18 1.6071958e-06 
    3002   -26206.797 2.3075483e-18 1.7581791e-06 
    3004   -26206.797 2.1501827e-18 1.7581814e-06 
    3006   -26206.797 1.0453663e-19 1.7581814e-06 
    3008   -26206.797 4.0966635e-19 1.7581791e-06 
    3010   -26206.797 8.4529653e-19 1.4270349e-06 
    3012   -26206.797 1.366585e-18 1.4693933e-06 
    3014   -26206.797 1.8812603e-18 1.4693929e-06 
    3016   -26206.797 2.0737852e-18 1.7359194e-06 
    3018   -26206.797 2.0762474e-18 1.6513398e-06 
    3020   -26206.797 4.1892502e-20 1.6513403e-06 
    3022   -26206.797 3.7703251e-19 1.6513398e-06 
    3024   -26206.797 1.0236415e-18 1.4275265e-06 
    3026   -26206.797 1.8184428e-18 1.4474246e-06 
    3028   -26206.797 2.3545438e-18 1.758179e-06 
    3030   -26206.797 2.210768e-18 1.7581813e-06 
    3032   -26206.797 2.6807035e-20 1.7581832e-06 
    3034   -26206.797 2.4100569e-19 1.7581832e-06 
    3036   -26206.797 6.3823816e-19 1.2132063e-06 
    3038   -26206.797 1.1136326e-18 1.2609003e-06 
    3040   -26206.797 1.6312501e-18 1.4264713e-06 
    3042   -26206.797 1.9017279e-18 1.5696782e-06 
    3044   -26206.797 2.0813737e-18 1.6071963e-06 
    3046   -26206.797 2.1442184e-18 1.6513398e-06 
    3048   -26206.797 2.127772e-19 1.6513398e-06 
    3050   -26206.797 8.0956391e-19 1.4275274e-06 
    3052   -26206.797 1.5966743e-18 1.4275274e-06 
    3054   -26206.797 2.3742968e-18 1.4693933e-06 
    3056   -26206.797 2.3359169e-18 1.4693932e-06 
    3058   -26206.797 2.2690218e-20 1.4264718e-06 
    3060   -26206.797 2.0318916e-19 1.4264718e-06 
    3062   -26206.797 5.5638316e-19 1.4264718e-06 
    3064   -26206.797 1.0173928e-18 1.2132064e-06 
    3066   -26206.797 1.4842447e-18 1.2201413e-06 
    3068   -26206.797 1.7611987e-18 1.7581832e-06 
    3070   -26206.797 1.9546057e-18 1.7581787e-06 
    3072   -26206.797 3.218984e-20 1.4270361e-06 
    3074   -26206.797 2.8963638e-19 1.6513402e-06 
    3076   -26206.797 7.6948146e-19 1.427036e-06 
    3078   -26206.797 1.3696953e-18 1.4474245e-06 
    3080   -26206.797 1.8348136e-18 1.7581788e-06 
[...]
    4350   -26206.797 5.6026718e-19 1.7641133e-06 
    4352   -26206.797 1.1532588e-18 1.447435e-06 
    4354   -26206.797 1.797212e-18 1.4474355e-06 
    4356   -26206.797 2.1955667e-18 1.5079317e-06 
    4358   -26206.797 2.2081483e-18 1.4693902e-06 
    4360   -26206.797 2.0125915e-18 1.4264753e-06 
    4362   -26206.797 2.4114047e-18 1.447436e-06 
    4364   -26206.797 3.013356e-18 1.7420652e-06 
    4366   -26206.797 4.2734333e-18 1.6072002e-06 
    4368   -26206.797 6.8977622e-19 1.6071999e-06 
    4370   -26206.797 2.5660658e-18 1.2304932e-06 
    4372   -26206.797 3.935189e-18 1.2272557e-06 
    4374   -26206.797 3.7126942e-18 1.447436e-06 
    4376   -26206.797 1.8262914e-19 1.447436e-06 
    4378   -26206.797 7.2240243e-19 1.4474351e-06 
    4380   -26206.797 1.4871296e-18 1.4275201e-06 
    4382   -26206.797 2.2989889e-18 1.0671285e-06 
    4384   -26206.797 2.6014136e-18 1.1415007e-06 
    4386   -26206.797 2.7076404e-18 1.644835e-06 
    4388   -26206.797 5.3339813e-20 1.6448349e-06 
    4390   -26206.797 4.7138848e-19 1.6448349e-06 
    4392   -26206.797 1.2534952e-18 1.6448325e-06 
    4394   -26206.797 2.149206e-18 1.2912583e-06 
    4396   -26206.797 2.8173404e-18 1.7581735e-06 
    4398   -26206.797 2.5464587e-18 1.7581755e-06 
    4400   -26206.797 1.0684312e-19 1.7581755e-06 
    4402   -26206.797 4.2390063e-19 1.4536572e-06 
    4404   -26206.797 8.7850706e-19 1.4275201e-06 
    4406   -26206.797 1.4449381e-18 1.2272557e-06 
    4408   -26206.797 1.9603805e-18 1.2008323e-06 
    4410   -26206.797 2.1152758e-18 1.5079357e-06 
    4412   -26206.797 2.1910524e-18 1.7581735e-06 
    4414   -26206.797 2.3137398e-18 1.6448349e-06 
    4416   -26206.797 2.492807e-19 1.6448349e-06 
    4418   -26206.797 9.7713071e-19 1.6448325e-06 
    4420   -26206.797 1.9845583e-18 1.4270393e-06 
    4422   -26206.797 2.8788251e-18 1.5696768e-06 
    4424   -26206.797 2.8852759e-18 1.4110936e-06 
    4426   -26206.797 9.3421791e-20 1.4110936e-06 
    4428   -26206.797 3.7014856e-19 1.4110936e-06 
    4430   -26206.797 7.8809007e-19 1.2115912e-06 
    4432   -26206.797 1.2904251e-18 1.6513412e-06 
    4434   -26206.797 1.7246071e-18 1.1415005e-06 
    4436   -26206.797 1.9955563e-18 1.7420692e-06 
    4438   -26206.797 2.1129841e-18 1.7581755e-06 
    4440   -26206.797 2.120517e-18 1.6448324e-06 
    4442   -26206.797 2.3390913e-19 1.6448324e-06 
    4444   -26206.797 9.030311e-19 1.6448324e-06 
    4446   -26206.797 1.8460079e-18 1.6513412e-06 
    4448   -26206.797 2.7174604e-18 1.7359253e-06 
    4450   -26206.797 1.7625388e-20 1.7420691e-06 
    4452   -26206.797 1.5740286e-19 1.7420672e-06 
    4454   -26206.797 4.2971456e-19 1.569677e-06 
    4456   -26206.797 8.0200934e-19 1.569677e-06 
    4458   -26206.797 1.2349078e-18 1.6513412e-06 
    4460   -26206.797 1.5816067e-18 1.6513412e-06 
    4462   -26206.797 1.7524412e-18 1.7359253e-06 
    4464   -26206.797 1.711466e-18 1.6448324e-06 
    4466   -26206.797 1.9875976e-18 1.6448348e-06 
    4468   -26206.797 2.4593839e-18 1.7581761e-06 
    4470   -26206.797 2.9750393e-18 1.5696764e-06 
    4472   -26206.797 3.6440166e-19 1.5696764e-06 
    4474   -26206.797 1.3663064e-18 1.447436e-06 
    4476   -26206.797 2.4854635e-18 1.1415014e-06 
    4478   -26206.797 3.1360666e-18 1.7581778e-06 
    4480   -26206.797 3.7700126e-20 1.7359258e-06 
    4482   -26206.797 3.3930114e-19 1.7359257e-06 
    4484   -26206.797 8.7788375e-19 1.4110941e-06 
    4486   -26206.797 1.4971442e-18 1.2131865e-06 
    4488   -26206.797 2.0972704e-18 1.4693912e-06 
    4490   -26206.797 2.1678969e-18  1.42752e-06 
    4492   -26206.797 2.0519799e-18  1.42752e-06 
    4494   -26206.797 2.2137605e-18 1.6448314e-06 
    4496   -26206.797 2.8763103e-18 1.6448314e-06 
    4498   -26206.797 3.5203148e-18 1.742064e-06 
    4500   -26206.797 4.8835237e-18 1.651341e-06 
    4502   -26206.797 6.5852925e-18 1.4275209e-06 
    4504   -26206.797 9.9532514e-19 1.4275209e-06 
    4506   -26206.797 3.5529026e-18 1.6072003e-06 
    4508   -26206.797 5.3328704e-18 1.2608956e-06 
    4510   -26206.797 6.0074584e-20 1.2272554e-06 
    4512   -26206.797 5.3579916e-19 1.2272552e-06 
    4514   -26206.797 1.4673384e-18 1.2272547e-06 
    4516   -26206.797 2.5810569e-18 1.214924e-06 
    4518   -26206.797  3.23971e-18 1.1518406e-06 
    4520   -26206.797 3.1881006e-18 1.758178e-06 
    4522   -26206.797 1.9077661e-19 1.758178e-06 
    4524   -26206.797 7.5943054e-19 1.7581755e-06 
    4526   -26206.797 1.5503833e-18 1.4275204e-06 
    4528   -26206.797 2.3805531e-18 1.2272544e-06 
    4530   -26206.797 2.7672241e-18 1.5079282e-06 
    4532   -26206.797 2.4954939e-18 1.7641136e-06 
    4534   -26206.797 2.5839589e-18 1.5079326e-06 
    4536   -26206.797 3.0424684e-18 1.6513414e-06 
    4538   -26206.797 3.7644031e-18 1.7581779e-06 
    4540   -26206.797 5.4210344e-18 1.7581767e-06 
    4542   -26206.797 7.7062378e-18 1.5079302e-06 
    4544   -26206.797 3.201363e-19 1.6072001e-06 
    4546   -26206.797 2.833655e-18 1.5079286e-06 
    4548   -26206.797 5.6510027e-18 1.2912559e-06 
    4550   -26206.797 5.4241605e-18 1.4110953e-06 
    4552   -26206.797 1.1185569e-19 1.1083917e-06 
    4554   -26206.797 1.0067012e-18 1.1343059e-06 
    4556   -26206.797 2.6191587e-18 1.1343058e-06 
    4558   -26206.797 4.0046358e-18 1.2608961e-06 
    4560   -26206.797 4.403789e-18 1.2608956e-06 
    4562   -26206.797 5.1711905e-20 1.2912556e-06 
    4564   -26206.797 4.6215889e-19 1.2912556e-06 
    4566   -26206.797 1.2372249e-18 1.2912554e-06 
    4568   -26206.797 2.2455165e-18 9.8704898e-07 
    4570   -26206.797 3.0555804e-18 1.4275194e-06 
    4572   -26206.797 3.0613235e-18 1.6513422e-06 
    4574   -26206.797 4.4162058e-20 1.6513421e-06 
    4576   -26206.797 3.9745852e-19 1.6513423e-06 
    4578   -26206.797 1.0503632e-18 1.6513417e-06 
    4580   -26206.797 1.9382539e-18 1.1738307e-06 
    4582   -26206.797 2.7254482e-18 1.4121718e-06 
    4584   -26206.797 2.5521496e-18 1.7581728e-06 
    4586   -26206.797 2.2711327e-18 1.4422746e-06 
    4588   -26206.797 1.6735014e-19 1.4422746e-06 
    4590   -26206.797 6.6072878e-19 1.4422746e-06 
    4592   -26206.797 1.4388319e-18 1.4474381e-06 
    4594   -26206.797 2.3220167e-18 1.7420661e-06 
    4596   -26206.797 2.6875956e-18 1.0587448e-06 
    4598   -26206.797 2.5467624e-18 1.2008358e-06 
    4600   -26206.797 1.2613332e-19 1.2008358e-06 
    4602   -26206.797  4.91774e-19 1.4270418e-06 
    4604   -26206.797 1.061901e-18 1.4270417e-06 
    4606   -26206.797 1.7492505e-18 1.4270417e-06 
    4608   -26206.797 2.2585375e-18 1.7641127e-06 
    4610   -26206.797 2.1618896e-18 1.7420661e-06 
    4612   -26206.797 2.1008205e-18 1.6448335e-06 
    4614   -26206.797 1.5134661e-19 1.6448335e-06 
    4616   -26206.797 5.997416e-19 1.6448335e-06 
    4618   -26206.797 1.2402977e-18 1.2272523e-06 
    4620   -26206.797 2.016556e-18 1.2608962e-06 
    4622   -26206.797 2.6300042e-18 1.6071999e-06 
    4624   -26206.797 2.4438262e-18 1.7641132e-06 
    4626   -26206.797 1.3698435e-19 1.7641132e-06 
    4628   -26206.797 5.3580736e-19 1.764113e-06 
    4630   -26206.797 1.1008526e-18 1.1738297e-06 
    4632   -26206.797 1.636269e-18 1.2258686e-06 
    4634   -26206.797 2.0586225e-18 1.7420662e-06 
    4636   -26206.797 2.054514e-18 1.7420661e-06 
    4638   -26206.797 1.959326e-18 1.6448334e-06 
    4640   -26206.797 1.5851841e-19 1.6448334e-06 
    4642   -26206.797 6.2676802e-19 1.6448334e-06 
    4644   -26206.797 1.261175e-18 1.2131822e-06 
    4646   -26206.797 2.0399867e-18 1.2131817e-06 
    4648   -26206.797 2.4964583e-18 1.453657e-06 
    4650   -26206.797 2.076975e-20 1.7581748e-06 
    4652   -26206.797 1.8692775e-19 1.7581748e-06 
    4654   -26206.797 5.0613883e-19 1.2008334e-06 
    4656   -26206.797 8.7474693e-19 1.0642704e-06 
    4658   -26206.797 1.285555e-18 1.0565373e-06 
    4660   -26206.797 1.6008683e-18 1.507931e-06 
    4662   -26206.797 1.8335551e-18 1.6071998e-06 
    4664   -26206.797 1.9088617e-18 1.7581746e-06 
    4666   -26206.797 2.0680278e-18 1.644838e-06 
    4668   -26206.797 2.6252244e-18 1.742065e-06 
    4670   -26206.797 3.4174655e-18 1.742065e-06 
    4672   -26206.797 4.5669702e-19 1.7420686e-06 
    4674   -26206.797 1.7472066e-18 1.4693905e-06 
    4676   -26206.797 3.0194546e-18 1.2149231e-06 
    4678   -26206.797 3.7794063e-18 1.7581725e-06 
    4680   -26206.797 1.3825919e-19 1.7581725e-06 
    4682   -26206.797 5.4304939e-19 1.2272512e-06 
    4684   -26206.797 1.0958754e-18 1.2272514e-06 
    4686   -26206.797 1.7510218e-18 1.2608968e-06 
    4688   -26206.797 2.1863091e-18 1.2608962e-06 
    4690   -26206.797 2.2875551e-18 1.7641131e-06 
    4692   -26206.797 2.2568212e-18 1.742065e-06 
    4694   -26206.797 2.0155794e-19 1.7420649e-06 
    4696   -26206.797 7.774192e-19 1.7420666e-06 
    4698   -26206.797 1.5566514e-18 1.2272509e-06 
    4700   -26206.797 2.2804451e-18 1.5696756e-06 
    4702   -26206.797 2.4014362e-18 1.7581723e-06 
    4704   -26206.797 2.0445334e-18 1.6448365e-06 
    4706   -26206.797 2.0138699e-18 1.7359271e-06 
    4708   -26206.797 2.3640952e-18 1.2608968e-06 
    4710   -26206.797 3.1409202e-18 1.7420631e-06 
    4712   -26206.797 5.1296706e-19 1.7420648e-06 
    4714   -26206.797 1.9688807e-18 1.7420662e-06 
    4716   -26206.797 3.3817244e-18 1.4693908e-06 
    4718   -26206.797 3.6578693e-18 1.2272514e-06 
    4720   -26206.797 1.3971378e-19 1.2272514e-06 
    4722   -26206.797 5.5601281e-19 1.2272513e-06 
    4724   -26206.797 1.1822641e-18 1.2608967e-06 
    4726   -26206.797 1.9158568e-18 1.2608965e-06 
    4728   -26206.797 2.4296923e-18 1.4110963e-06 
    4730   -26206.797 2.3115266e-18 1.4270418e-06 
    4732   -26206.797 2.171138e-18 1.6513431e-06 
    4734   -26206.797 2.5886375e-18 1.7420606e-06 
    4736   -26206.797 3.1756474e-18 1.5696771e-06 
    4738   -26206.797 4.0938962e-18 1.7359263e-06 
    4740   -26206.797 5.2045376e-18 1.7359266e-06 
    4742   -26206.797 8.0388926e-19 1.5079342e-06 
    4744   -26206.797 2.7967929e-18 1.0565373e-06 
    4746   -26206.797 4.5245188e-18 1.4693908e-06 
    4748   -26206.797 4.3836615e-18 1.6072003e-06 
    4750   -26206.797 2.8112524e-19 1.6072002e-06 
    4752   -26206.797 1.0988418e-18 1.6071997e-06 
    4754   -26206.797 2.2321912e-18 1.2272511e-06 
    4756   -26206.797 3.1146722e-18 1.2131802e-06 
    4758   -26206.797 3.0136547e-18 1.5079285e-06 
    4760   -26206.797 4.9517708e-20 1.5079288e-06 
    4762   -26206.797 4.4565937e-19 1.5079288e-06 
    4764   -26206.797 1.1892674e-18 1.5079332e-06 
    4766   -26206.797 2.154789e-18 1.5079349e-06 
    4768   -26206.797 2.894545e-18 1.4474389e-06 
    4770   -26206.797 2.7574541e-18 1.4422705e-06 
    4772   -26206.797 1.117942e-19 1.4422705e-06 
    4774   -26206.797 4.4574418e-19 1.4422705e-06 
    4776   -26206.797 9.6746782e-19 1.4422705e-06 
    4778   -26206.797 1.5571443e-18 1.4422705e-06 
    4780   -26206.797 2.1147015e-18 1.6448379e-06 
    4782   -26206.797 2.1266928e-18 1.758179e-06 
    4784   -26206.797 2.2666192e-18 1.6071997e-06 
    4786   -26206.797 2.320032e-18 1.5079308e-06 
    4788   -26206.797 2.9810342e-18 1.4724019e-06 
    4790   -26206.797 3.9430669e-18 1.4780624e-06 
    4792   -26206.797 5.3482493e-19 1.4780624e-06 
    4794   -26206.797 2.0838016e-18 1.4264765e-06 
    4796   -26206.797 3.8656273e-18 1.644838e-06 
    4798   -26206.797 4.1067253e-18 1.5696757e-06 
    4800   -26206.797 1.5345852e-19 1.5696757e-06 
    4802   -26206.797 6.1383409e-19 1.2736016e-06 
    4804   -26206.797 1.3066168e-18 1.2131792e-06 
    4806   -26206.797 2.1003074e-18 1.2608954e-06 
    4808   -26206.797 2.6734488e-18 1.4724018e-06 
    4810   -26206.797 2.369756e-18 1.3632569e-06 
    4812   -26206.797 1.2584445e-19 1.3632569e-06 
    4814   -26206.797 4.9382224e-19 1.3632568e-06 
    4816   -26206.797 1.0558426e-18 1.2912567e-06 
    4818   -26206.797 1.7695863e-18 1.2272491e-06 
    4820   -26206.797 2.3227596e-18 1.5079306e-06 
    4822   -26206.797 2.1841073e-18 1.644838e-06 
    4824   -26206.797 2.0119267e-18 1.7581725e-06 
    4826   -26206.797 2.1552799e-18 1.4422669e-06 
    4828   -26206.797 2.8663454e-18 1.4693907e-06 
    4830   -26206.797 3.8609243e-18 1.6513437e-06 
    4832   -26206.797 5.7316642e-19 1.3197695e-06 
    4834   -26206.797 2.0792618e-18 1.4275198e-06 
    4836   -26206.797 3.5723851e-18 1.1415023e-06 
    4838   -26206.797 3.6823151e-18 1.6072001e-06 
    4840   -26206.797 1.5431246e-19 1.5079354e-06 
    4842   -26206.797 5.9499209e-19 1.5079354e-06 
    4844   -26206.797 1.2145382e-18 1.0565376e-06 
    4846   -26206.797 1.8364653e-18 1.1041857e-06 
    4848   -26206.797 2.3738928e-18 1.4474403e-06 
    4850   -26206.797 2.3089845e-18 1.6072003e-06 
    4852   -26206.797 2.2571777e-18 1.2372053e-06 
    4854   -26206.797 2.6037699e-18 1.6448411e-06 
    4856   -26206.797 3.7971387e-18 1.7420663e-06 
    4858   -26206.797 4.9486318e-18 1.7420608e-06 
    4860   -26206.797 6.2898538e-19 1.7420645e-06 
    4862   -26206.797 2.2879849e-18 1.2912535e-06 
    4864   -26206.797 3.9525332e-18 1.1060529e-06 
    4866   -26206.797 4.1152198e-18 1.5696784e-06 
    4868   -26206.797 2.1415438e-19 1.5696784e-06 
    4870   -26206.797 8.4969773e-19 1.5696759e-06 
    4872   -26206.797 1.7579831e-18 1.2008347e-06 
    4874   -26206.797 2.594468e-18 1.7581769e-06 
    4876   -26206.797 2.9463354e-18 1.7581745e-06 
    4878   -26206.797 3.3487584e-20 1.7641134e-06 
    4880   -26206.797 3.0006334e-19 1.7641131e-06 
    4882   -26206.797 7.941596e-19 1.4275198e-06 
    4884   -26206.797 1.4282002e-18 1.2272486e-06 
    4886   -26206.797 2.1348521e-18 1.227248e-06 
    4888   -26206.797 2.5286977e-18 1.7581748e-06 
    4890   -26206.797 2.3142456e-18 1.7581723e-06 
    4892   -26206.797 2.2689858e-18 1.5696759e-06 
    4894   -26206.797 2.8474911e-18 1.7641132e-06 
    4896   -26206.797 3.7323149e-18 1.6071998e-06 
    4898   -26206.797 5.3977503e-19 1.6071995e-06 
    4900   -26206.797 2.0750918e-18 1.291259e-06 
    4902   -26206.797 3.7327148e-18 1.4422658e-06 
    4904   -26206.797 3.9964507e-18 1.4422658e-06 
    4906   -26206.797 1.5895211e-19 1.4422658e-06 
    4908   -26206.797 6.3033446e-19 1.4422658e-06 
    4910   -26206.797 1.3239832e-18 1.4422658e-06 
    4912   -26206.797 2.0480846e-18 1.2608944e-06 
    4914   -26206.797 2.5093351e-18 1.7359282e-06 
    4916   -26206.797 2.5502318e-18 1.7581746e-06 
    4918   -26206.797 1.2772957e-19 1.7581746e-06 
    4920   -26206.797 4.9028765e-19 1.7581744e-06 
    4922   -26206.797 1.008399e-18 1.237209e-06 
    4924   -26206.797 1.624084e-18 1.4270442e-06 
    4926   -26206.797 1.9817947e-18 1.5079319e-06 
    4928   -26206.797 2.116009e-18 1.5079319e-06 
    4930   -26206.797 2.0235203e-18 1.2637445e-06 
    4932   -26206.797 2.1881552e-18 1.6513435e-06 
    4934   -26206.797 2.6466588e-18 1.7581728e-06 
    4936   -26206.797 3.5717697e-18 1.7420642e-06 
    4938   -26206.797 4.8447703e-18 1.7359278e-06 
    4940   -26206.797 7.3453225e-19 1.7359276e-06 
    4942   -26206.797 2.6751744e-18 1.447442e-06 
    4944   -26206.797 4.5867926e-18 1.2272474e-06 
    4946   -26206.797 4.2302066e-18 1.7420595e-06 
    4948   -26206.797 2.2999178e-19 1.2272483e-06 
    4950   -26206.797 8.9645259e-19 1.2272481e-06 
    4952   -26206.797 1.7843144e-18 1.2272477e-06 
    4954   -26206.797 2.8388508e-18 1.4264773e-06 
    4956   -26206.797 3.0442945e-18 1.7641133e-06 
    4958   -26206.797 2.7308894e-18 1.5079346e-06 
    4960   -26206.797 1.9721916e-19 1.5079346e-06 
    4962   -26206.797 7.7752476e-19 1.5079346e-06 
    4964   -26206.797 1.6029973e-18 1.5079317e-06 
    4966   -26206.797 2.5043291e-18 1.4110987e-06 
    4968   -26206.797 2.8798042e-18 1.0565361e-06 
    4970   -26206.797 2.5409073e-20 1.2272466e-06 
    4972   -26206.797 2.2805642e-19 1.227247e-06 
    4974   -26206.797 6.246951e-19 1.2272468e-06 
    4976   -26206.797 1.1783141e-18 1.0565364e-06 
    4978   -26206.797 1.8488874e-18 9.7825562e-07 
    4980   -26206.797 2.1405915e-18 1.4474415e-06 
    4982   -26206.797 2.1742078e-18 1.426478e-06 
    4984   -26206.797 2.1716802e-18 1.6513449e-06 
    4986   -26206.797  6.68956e-20 1.6513448e-06 
    4988   -26206.797 5.9515753e-19 1.6513443e-06 
    4990   -26206.797 1.4801036e-18 1.4474415e-06 
    4992   -26206.797 2.3926592e-18 1.4422721e-06 
    4994   -26206.797 3.0850947e-18 1.7420614e-06 
    4996   -26206.797 2.6178761e-20 1.6072004e-06 
    4998   -26206.797 2.3337404e-19 1.6072003e-06 
    5000   -26206.797 6.3563321e-19 1.4422721e-06 
Loop time of 721.572 on 1 procs for 5000 steps with 2304 atoms

100.0% CPU use with 1 MPI tasks x no OpenMP threads

Minimization stats:
  Stopping criterion = max iterations
  Energy initial, next-to-last, final = 
        -26012.5950854     -26206.7965822     -26206.7965798
  Force two-norm initial, final = 280.333 1.17534e-05
  Force max component initial, final = 16.1351 1.44227e-06
  Final line search alpha, max atom move = 0 0
  Iterations, force evaluations = 5000 5000

MPI task timing breakdown:
Section |  min time  |  avg time  |  max time  |%varavg| %total
---------------------------------------------------------------
Pair    | 360.25     | 360.25     | 360.25     |   0.0 | 49.93
Bond    | 0.094693   | 0.094693   | 0.094693   |   0.0 |  0.01
Kspace  | 360        | 360        | 360        |   0.0 | 49.89
Neigh   | 0          | 0          | 0          |   0.0 |  0.00
Comm    | 0.69185    | 0.69185    | 0.69185    |   0.0 |  0.10
Output  | 0.064329   | 0.064329   | 0.064329   |   0.0 |  0.01
Modify  | 0.040771   | 0.040771   | 0.040771   |   0.0 |  0.01
Other   |            | 0.4331     |            |       |  0.06

Nlocal:    2304 ave 2304 max 2304 min
Histogram: 1 0 0 0 0 0 0 0 0 0
Nghost:    16845 ave 16845 max 16845 min
Histogram: 1 0 0 0 0 0 0 0 0 0
Neighs:    1.5536e+06 ave 1.5536e+06 max 1.5536e+06 min
Histogram: 1 0 0 0 0 0 0 0 0 0

Total # of neighbors = 1553600
Ave neighs/atom = 674.306
Ave special neighs/atom = 0.666667
Neighbor list builds = 0
Dangerous builds = 0
WARNING: No fixes defined, atoms won't move (../verlet.cpp:55)
Ewald initialization ...
  using 12-bit tables for long-range coulomb (../kspace.cpp:321)
WARNING: For better accuracy use 'pair_modify table 0' (../kspace.cpp:342)
  G vector (1/distance) = 0.375581
  estimated absolute RMS force accuracy = 2.29519e-05
  estimated relative force accuracy = 1.59392e-06
  KSpace vectors: actual max1d max3d = 3171 13 9841
                  kxmax kymax kzmax  = 10 10 13
Setting up Verlet run ...
  Unit style    : metal
  Current step  : 0
  Time step     : 0.001
Per MPI rank memory allocation (min/avg/max) = 61.89 | 61.89 | 61.89 Mbytes
Step TotEng Temp Fmax 
       0   -26206.797 6.3563321e-19    9.9436211 
Loop time of 1.18837e-06 on 1 procs for 0 steps with 2304 atoms

0.0% CPU use with 1 MPI tasks x no OpenMP threads

MPI task timing breakdown:
Section |  min time  |  avg time  |  max time  |%varavg| %total
---------------------------------------------------------------
Pair    | 0          | 0          | 0          |   0.0 |  0.00
Bond    | 0          | 0          | 0          |   0.0 |  0.00
Kspace  | 0          | 0          | 0          |   0.0 |  0.00
Neigh   | 0          | 0          | 0          |   0.0 |  0.00
Comm    | 0          | 0          | 0          |   0.0 |  0.00
Output  | 0          | 0          | 0          |   0.0 |  0.00
Modify  | 0          | 0          | 0          |   0.0 |  0.00
Other   |            | 1.188e-06  |            |       |100.00

Nlocal:    2304 ave 2304 max 2304 min
Histogram: 1 0 0 0 0 0 0 0 0 0
Nghost:    16845 ave 16845 max 16845 min
Histogram: 1 0 0 0 0 0 0 0 0 0
Neighs:    1.55629e+06 ave 1.55629e+06 max 1.55629e+06 min
Histogram: 1 0 0 0 0 0 0 0 0 0

Total # of neighbors = 1556288
Ave neighs/atom = 675.472
Ave special neighs/atom = 0.666667
Neighbor list builds = 0
Dangerous builds = 0
Total wall time: 0:12:04
